<?xml version="1.0" encoding="ISO-8859-1"?>
<modeling>
 <generator>
  <i name="program" type="string">vasp </i>
  <i name="version" type="string">6.3.0  </i>
  <i name="subversion" type="string">20Jan22 (build Sep 05 2023 17:46:30) complex                          parallel </i>
  <i name="platform" type="string">LinuxIFC </i>
  <i name="date" type="string">2023 09 14 </i>
  <i name="time" type="string">14:59:26 </i>
 </generator>
 <incar>
  <i type="int" name="ISTART">     1</i>
  <i type="logical" name="ADDGRID"> T  </i>
  <i type="int" name="ISPIN">     1</i>
  <i type="int" name="IBRION">     0</i>
  <i name="EDIFF">      0.00000001</i>
  <i name="EDIFFG">     -0.01000000</i>
  <i type="int" name="NSW">     2</i>
  <i type="int" name="ISIF">     2</i>
  <i type="int" name="ISYM">     0</i>
  <i name="ENCUT">    500.00000000</i>
  <i name="POTIM">      5.00000000</i>
  <i name="TEBEG">    600.00000000</i>
  <i name="TEEND">    600.00000000</i>
  <i name="SMASS">      0.00000000</i>
  <i type="logical" name="LREAL"> F  </i>
  <i type="int" name="ISMEAR">     0</i>
  <i name="SIGMA">      0.05000000</i>
  <i type="int" name="NWRITE">     2</i>
  <i type="logical" name="LWAVE"> F  </i>
  <i type="logical" name="LCHARG"> F  </i>
  <i type="int" name="MDALGO">     2</i>
 </incar>
 <primitive_cell>
  <structure name="primitive_cell" >
   <crystal>
    <varray name="basis" >
     <v>      14.53271978       0.00000000       0.00000000 </v>
     <v>       0.00000000      14.53271978       0.00000000 </v>
     <v>       0.00000000       0.00000000      12.26635989 </v>
    </varray>
    <i name="volume">   2590.65452435 </i>
    <varray name="rec_basis" >
     <v>       0.06881024       0.00000000       0.00000000 </v>
     <v>       0.00000000       0.06881024       0.00000000 </v>
     <v>       0.00000000       0.00000000       0.08152378 </v>
    </varray>
   </crystal>
   <varray name="positions" >
    <v>       0.50000000       0.50000000       0.50000000 </v>
    <v>       0.50000000       0.50000000       0.30000000 </v>
   </varray>
  </structure>
  <varray name="primitive_index" >
   <v type="int" >        1 </v>
   <v type="int" >        2 </v>
  </varray>
 </primitive_cell>
 <kpoints>
  <generation param="Gamma">
   <v type="int" name="divisions">       3        3        3 </v>
   <v name="usershift">      0.00000000       0.00000000       0.00000000 </v>
   <v name="genvec1">      0.33333333       0.00000000       0.00000000 </v>
   <v name="genvec2">      0.00000000       0.33333333       0.00000000 </v>
   <v name="genvec3">      0.00000000       0.00000000       0.33333333 </v>
   <v name="shift">      0.00000000       0.00000000       0.00000000 </v>
  </generation>
  <varray name="kpointlist" >
   <v>       0.00000000       0.00000000       0.00000000 </v>
   <v>       0.33333333       0.00000000       0.00000000 </v>
   <v>       0.00000000       0.33333333       0.00000000 </v>
   <v>       0.33333333       0.33333333       0.00000000 </v>
   <v>      -0.33333333       0.33333333       0.00000000 </v>
   <v>       0.00000000       0.00000000       0.33333333 </v>
   <v>       0.33333333       0.00000000       0.33333333 </v>
   <v>       0.00000000       0.33333333       0.33333333 </v>
   <v>      -0.33333333       0.00000000       0.33333333 </v>
   <v>       0.00000000      -0.33333333       0.33333333 </v>
   <v>       0.33333333       0.33333333       0.33333333 </v>
   <v>      -0.33333333       0.33333333       0.33333333 </v>
   <v>      -0.33333333      -0.33333333       0.33333333 </v>
   <v>       0.33333333      -0.33333333       0.33333333 </v>
  </varray>
  <varray name="weights" >
   <v>       0.03703704 </v>
   <v>       0.07407407 </v>
   <v>       0.07407407 </v>
   <v>       0.07407407 </v>
   <v>       0.07407407 </v>
   <v>       0.07407407 </v>
   <v>       0.07407407 </v>
   <v>       0.07407407 </v>
   <v>       0.07407407 </v>
   <v>       0.07407407 </v>
   <v>       0.07407407 </v>
   <v>       0.07407407 </v>
   <v>       0.07407407 </v>
   <v>       0.07407407 </v>
  </varray>
 </kpoints>
 <parameters>
  <separator name="general" >
   <i type="string" name="SYSTEM">unknown system</i>
   <i type="logical" name="LCOMPAT"> F  </i>
  </separator>
  <separator name="electronic" >
   <i type="string" name="PREC">normal</i>
   <i name="ENMAX">    500.00000000</i>
   <i name="ENAUG">    586.98000000</i>
   <i name="EDIFF">      0.00000001</i>
   <i type="int" name="IALGO">    38</i>
   <i type="int" name="IWAVPR">    12</i>
   <i type="int" name="NBANDS">    64</i>
   <i type="int" name="NBANDSLOW">    -1</i>
   <i type="int" name="NBANDSHIGH">    -1</i>
   <i name="NELECT">     22.00000000</i>
   <i type="int" name="TURBO">     0</i>
   <i type="int" name="IRESTART">     0</i>
   <i type="int" name="NREBOOT">     0</i>
   <i type="int" name="NMIN">     0</i>
   <i name="EREF">      0.00000000</i>
   <separator name="electronic smearing" >
    <i type="int" name="ISMEAR">     0</i>
    <i name="SIGMA">      0.05000000</i>
    <i name="KSPACING">      0.50000000</i>
    <i type="logical" name="KGAMMA"> T  </i>
    <i type="logical" name="KBLOWUP"> T  </i>
   </separator>
   <separator name="electronic projectors" >
    <i type="logical" name="LREAL"> F  </i>
    <v name="ROPT">      0.00000000</v>
    <i type="int" name="LMAXPAW">  -100</i>
    <i type="int" name="LMAXMIX">     2</i>
    <i type="logical" name="NLSPLINE"> F  </i>
   </separator>
   <separator name="electronic startup" >
    <i type="int" name="ISTART">     0</i>
    <i type="int" name="ICHARG">     2</i>
    <i type="int" name="INIWAV">     1</i>
   </separator>
   <separator name="electronic spin" >
    <i type="int" name="ISPIN">     1</i>
    <i type="logical" name="LNONCOLLINEAR"> F  </i>
    <v name="MAGMOM">      1.00000000      1.00000000</v>
    <i name="NUPDOWN">     -1.00000000</i>
    <i type="logical" name="LSORBIT"> F  </i>
    <v name="SAXIS">      0.00000000      0.00000000      1.00000000</v>
    <i type="logical" name="LSPIRAL"> F  </i>
    <v name="QSPIRAL">      0.00000000      0.00000000      0.00000000</v>
    <i type="logical" name="LZEROZ"> F  </i>
   </separator>
   <separator name="electronic exchange-correlation" >
    <i type="logical" name="LASPH"> F  </i>
    <i type="logical" name="LMETAGGA"> F  </i>
   </separator>
   <separator name="electronic convergence" >
    <i type="int" name="NELM">    60</i>
    <i type="int" name="NELMDL">     0</i>
    <i type="int" name="NELMIN">     2</i>
    <i name="ENINI">    500.00000000</i>
    <separator name="electronic convergence detail" >
     <i type="logical" name="LDIAG"> T  </i>
     <i type="logical" name="LSUBROT"> F  </i>
     <i name="WEIMIN">      0.00100000</i>
     <i name="EBREAK">      0.00000000</i>
     <i name="DEPER">      0.30000000</i>
     <i type="int" name="NRMM">     4</i>
     <i name="TIME">      0.40000000</i>
    </separator>
   </separator>
   <separator name="electronic mixer" >
    <i name="AMIX">      0.40000000</i>
    <i name="BMIX">      1.00000000</i>
    <i name="AMIN">      0.10000000</i>
    <i name="AMIX_MAG">      1.60000000</i>
    <i name="BMIX_MAG">      1.00000000</i>
    <separator name="electronic mixer details" >
     <i type="int" name="IMIX">     4</i>
     <i type="logical" name="MIXFIRST"> F  </i>
     <i type="int" name="MAXMIX">   -45</i>
     <i name="WC">    100.00000000</i>
     <i type="int" name="INIMIX">     1</i>
     <i type="int" name="MIXPRE">     1</i>
     <i type="int" name="MREMOVE">     5</i>
    </separator>
   </separator>
   <separator name="electronic dipolcorrection" >
    <i type="logical" name="LDIPOL"> F  </i>
    <i type="logical" name="LMONO"> F  </i>
    <i type="int" name="IDIPOL">     0</i>
    <i name="EPSILON">      1.00000000</i>
    <v name="DIPOL">   -100.00000000   -100.00000000   -100.00000000</v>
    <i name="EFIELD">      0.00000000</i>
   </separator>
  </separator>
  <separator name="grids" >
   <i type="int" name="NGX">    80</i>
   <i type="int" name="NGY">    80</i>
   <i type="int" name="NGZ">    70</i>
   <i type="int" name="NGXF">   160</i>
   <i type="int" name="NGYF">   160</i>
   <i type="int" name="NGZF">   140</i>
   <i type="logical" name="ADDGRID"> T  </i>
  </separator>
  <separator name="ionic" >
   <i type="int" name="NSW">     2</i>
   <i type="int" name="IBRION">     0</i>
   <i type="int" name="MDALGO">     2</i>
   <i type="int" name="ISIF">     2</i>
   <i name="PSTRESS">      0.00000000</i>
   <i name="EDIFFG">     -0.01000000</i>
   <i type="int" name="NFREE">     0</i>
   <i name="POTIM">      5.00000000</i>
   <i name="SMASS">      0.00478657</i>
   <i name="SCALEE">      1.00000000</i>
  </separator>
  <separator name="ionic md" >
   <i name="TEBEG">    600.00000000</i>
   <i name="TEEND">    600.00000000</i>
   <i type="int" name="NBLOCK">     1</i>
   <i type="int" name="KBLOCK">     2</i>
   <i type="int" name="NPACO">   256</i>
   <i name="APACO">     10.00000000</i>
  </separator>
  <separator name="symmetry" >
   <i type="int" name="ISYM">     0</i>
   <i name="SYMPREC">      0.00001000</i>
  </separator>
  <separator name="dos" >
   <i type="int" name="LORBIT">     0</i>
   <v name="RWIGS">     -1.00000000</v>
   <i type="int" name="NEDOS">   301</i>
   <i name="EMIN">     10.00000000</i>
   <i name="EMAX">    -10.00000000</i>
   <i name="EFERMI">      0.00000000</i>
  </separator>
  <separator name="writing" >
   <i type="int" name="NWRITE">     2</i>
   <i type="logical" name="LWAVE"> F  </i>
   <i type="logical" name="LDOWNSAMPLE"> F  </i>
   <i type="logical" name="LCHARG"> F  </i>
   <i type="logical" name="LPARD"> F  </i>
   <i type="logical" name="LVTOT"> F  </i>
   <i type="logical" name="LVHAR"> F  </i>
   <i type="logical" name="LELF"> F  </i>
   <i type="logical" name="LOPTICS"> F  </i>
   <v name="STM">      0.00000000      0.00000000      0.00000000      0.00000000      0.00000000      0.00000000      0.00000000</v>
  </separator>
  <separator name="performance" >
   <i type="int" name="NPAR">    64</i>
   <i type="int" name="NSIM">     4</i>
   <i type="int" name="NBLK">    -1</i>
   <i type="logical" name="LPLANE"> T  </i>
   <i type="logical" name="LSCALAPACK"> T  </i>
   <i type="logical" name="LSCAAWARE"> F  </i>
   <i type="logical" name="LSCALU"> F  </i>
   <i type="logical" name="LASYNC"> F  </i>
   <i type="logical" name="LORBITALREAL"> F  </i>
  </separator>
  <separator name="miscellaneous" >
   <i type="int" name="IDIOT">     3</i>
   <i type="int" name="PHON_NSTRUCT">    -1</i>
   <i type="logical" name="LMUSIC"> F  </i>
   <v name="POMASS">     63.54600000</v>
   <v name="DARWINR">      0.00000000</v>
   <v name="DARWINV">      1.00000000</v>
   <i type="logical" name="LCORR"> T  </i>
  </separator>
  <i type="logical" name="GGA_COMPAT"> T  </i>
  <i type="logical" name="LBERRY"> F  </i>
  <i type="int" name="ICORELEVEL">     0</i>
  <i type="logical" name="LDAU"> F  </i>
  <i type="int" name="I_CONSTRAINED_M">     0</i>
  <separator name="electronic exchange-correlation" >
   <i type="string" name="GGA">--</i>
   <i type="int" name="VOSKOWN">     0</i>
   <i type="logical" name="LHFCALC"> F  </i>
   <i type="string" name="PRECFOCK"></i>
   <i type="logical" name="LSYMGRAD"> F  </i>
   <i type="logical" name="LHFONE"> F  </i>
   <i type="logical" name="LRHFCALC"> F  </i>
   <i type="logical" name="LTHOMAS"> F  </i>
   <i type="logical" name="LMODELHF"> F  </i>
   <i type="logical" name="LFOCKACE"> F  </i>
   <i name="ENCUT4O">     -1.00000000</i>
   <i type="int" name="EXXOEP">     0</i>
   <i type="int" name="FOURORBIT">     0</i>
   <i name="AEXX">      0.00000000</i>
   <i name="HFALPHA">      0.00000000</i>
   <i name="MCALPHA">      0.00000000</i>
   <i name="ALDAX">      1.00000000</i>
   <i name="AGGAX">      1.00000000</i>
   <i name="ALDAC">      1.00000000</i>
   <i name="AGGAC">      1.00000000</i>
   <i type="int" name="NKREDX">     1</i>
   <i type="int" name="NKREDY">     1</i>
   <i type="int" name="NKREDZ">     1</i>
   <i type="logical" name="SHIFTRED"> F  </i>
   <i type="logical" name="ODDONLY"> F  </i>
   <i type="logical" name="EVENONLY"> F  </i>
   <i type="int" name="LMAXFOCK">     0</i>
   <i type="int" name="NMAXFOCKAE">     0</i>
   <i type="logical" name="LFOCKAEDFT"> F  </i>
   <i name="HFSCREEN">      0.00000000</i>
   <i name="HFSCREENC">      0.00000000</i>
   <i type="int" name="NBANDSGWLOW">     0</i>
  </separator>
  <separator name="vdW DFT" >
   <i type="logical" name="LUSE_VDW"> F  </i>
   <i name="Zab_VDW">     -0.84910000</i>
   <i name="PARAM1">      0.12340000</i>
   <i name="PARAM2">      1.00000000</i>
   <i name="PARAM3">      0.00000000</i>
  </separator>
  <separator name="model GW" >
   <i type="int" name="MODEL_GW">     0</i>
   <i name="MODEL_EPS0">    777.19635731</i>
   <i name="MODEL_ALPHA">      1.00000000</i>
  </separator>
  <separator name="linear response parameters" >
   <i type="logical" name="LEPSILON"> F  </i>
   <i type="logical" name="LRPA"> F  </i>
   <i type="logical" name="LNABLA"> F  </i>
   <i type="logical" name="LVEL"> F  </i>
   <i name="CSHIFT">      0.10000000</i>
   <i name="OMEGAMAX">     -1.00000000</i>
   <i name="DEG_THRESHOLD">      0.00200000</i>
   <i name="RTIME">     -0.10000000</i>
   <i name="WPLASMAI">      0.00000000</i>
   <v name="DFIELD">      0.00000000      0.00000000      0.00000000</v>
   <v name="WPLASMA">      0.00000000      0.00000000      0.00000000      0.00000000      0.00000000      0.00000000      0.00000000      0.00000000      0.00000000</v>
  </separator>
  <separator name="orbital magnetization" >
   <i type="logical" name="NUCIND"> F  </i>
   <v name="MAGPOS">      0.00000000      0.00000000      0.00000000</v>
   <i type="logical" name="LNICSALL"> T  </i>
   <i type="logical" name="ORBITALMAG"> F  </i>
   <i type="logical" name="LMAGBLOCH"> F  </i>
   <i type="logical" name="LCHIMAG"> F  </i>
   <i type="logical" name="LGAUGE"> T  </i>
   <i type="int" name="MAGATOM">     0</i>
   <v name="MAGDIPOL">      0.00000000      0.00000000      0.00000000</v>
   <v name="AVECCONST">      0.00000000      0.00000000      0.00000000</v>
  </separator>
  <separator name="response functions" >
   <i type="logical" name="LFINITE_TEMPERATURE"> F  </i>
   <i type="logical" name="LADDER"> F  </i>
   <i type="logical" name="LRPAFORCE"> F  </i>
   <i type="logical" name="LFXC"> F  </i>
   <i type="logical" name="LHARTREE"> T  </i>
   <i type="int" name="IBSE">     0</i>
   <v type="int" name="KPOINT">    -1     0     0     0</v>
   <i type="logical" name="LTCTC"> F  </i>
   <i type="logical" name="LTCTE"> F  </i>
   <i type="logical" name="LTETE"> F  </i>
   <i type="logical" name="LTRIPLET"> F  </i>
   <i type="logical" name="LFXCEPS"> F  </i>
   <i type="logical" name="LFXHEG"> F  </i>
   <i type="int" name="NATURALO">     2</i>
   <i type="logical" name="LHOLEGF"> F  </i>
   <i type="logical" name="L2ORDER"> F  </i>
   <i type="logical" name="LDMP1"> F  </i>
   <i type="logical" name="LMP2LT"> F  </i>
   <i type="logical" name="LSMP2LT"> F  </i>
   <i type="logical" name="LGWLF"> F  </i>
   <i name="ENCUTGW">     -2.00000000</i>
   <i name="ENCUTGWSOFT">     -2.00000000</i>
   <i name="ENCUTLF">     -1.00000000</i>
   <i type="logical" name="LESF_SPLINES"> F  </i>
   <i type="int" name="LMAXMP2">    -1</i>
   <i name="SCISSOR">      0.00000000</i>
   <i type="int" name="NOMEGA">     0</i>
   <i type="int" name="NOMEGAR">     0</i>
   <i type="int" name="NBANDSGW">    -1</i>
   <i type="int" name="NBANDSO">    -1</i>
   <i type="int" name="NBANDSV">    -1</i>
   <i type="int" name="NELMGW">     1</i>
   <i type="int" name="NELMHF">     1</i>
   <i type="int" name="DIM">     3</i>
   <i type="int" name="IESPILON">     4</i>
   <i type="int" name="ANTIRES">     0</i>
   <i name="OMEGAMAX">    -30.00000000</i>
   <i name="OMEGAMIN">    -30.00000000</i>
   <i name="OMEGATL">   -200.00000000</i>
   <i type="int" name="OMEGAGRID">     0</i>
   <i name="CSHIFT">     -0.10000000</i>
   <i type="logical" name="LSELFENERGY"> F  </i>
   <i type="logical" name="LSPECTRAL"> F  </i>
   <i type="logical" name="LSPECTRALGW"> F  </i>
   <i type="logical" name="LSINGLES"> F  </i>
   <i type="logical" name="LFERMIGW"> F  </i>
   <i type="logical" name="ODDONLYGW"> F  </i>
   <i type="logical" name="EVENONLYGW"> F  </i>
   <i type="int" name="NKREDLFX">     1</i>
   <i type="int" name="NKREDLFY">     1</i>
   <i type="int" name="NKREDLFZ">     1</i>
   <i type="int" name="MAXMEM">  2800</i>
   <i type="int" name="TELESCOPE">     0</i>
   <i type="int" name="NTAUPAR">    -1</i>
   <i type="int" name="NOMEGAPAR">    -1</i>
   <i name="DAMP_NEWTON">      0.80000001</i>
   <i name="LAMBDA">      1.00000000</i>
  </separator>
  <separator name="External order field" >
   <i name="OFIELD_KAPPA">      0.00000000</i>
   <v name="OFIELD_K">      0.00000000      0.00000000      0.00000000</v>
   <i name="OFIELD_Q6_NEAR">      0.00000000</i>
   <i name="OFIELD_Q6_FAR">      0.00000000</i>
   <i name="OFIELD_A">      0.00000000</i>
  </separator>
  <separator name="optional k-points parameters" >
   <i type="int" name="KPOINTS_OPT_MODE">     1</i>
   <i type="logical" name="LKPOINTS_OPT"> F  </i>
  </separator>
 </parameters>
 <atominfo>
  <atoms>       2 </atoms>
  <types>       1 </types>
  <array name="atoms" >
   <dimension dim="1">ion</dimension>
   <field type="string">element</field>
   <field type="int">atomtype</field>
   <set>
    <rc><c>Cu</c><c>   1</c></rc>
    <rc><c>Cu</c><c>   1</c></rc>
   </set>
  </array>
  <array name="atomtypes" >
   <dimension dim="1">type</dimension>
   <field type="int">atomspertype</field>
   <field type="string">element</field>
   <field>mass</field>
   <field>valence</field>
   <field type="string">pseudopotential</field>
   <set>
    <rc><c>   2</c><c>Cu</c><c>     63.54600000</c><c>     11.00000000</c><c>  PAW_PBE Cu 22Jun2005                  </c></rc>
   </set>
  </array>
 </atominfo>
 <structure name="initialpos" >
  <crystal>
   <varray name="basis" >
    <v>      14.53271978       0.00000000       0.00000000 </v>
    <v>       0.00000000      14.53271978       0.00000000 </v>
    <v>       0.00000000       0.00000000      12.26635989 </v>
   </varray>
   <i name="volume">   2590.65452435 </i>
   <varray name="rec_basis" >
    <v>       0.06881024       0.00000000       0.00000000 </v>
    <v>       0.00000000       0.06881024       0.00000000 </v>
    <v>       0.00000000       0.00000000       0.08152378 </v>
   </varray>
  </crystal>
  <varray name="positions" >
   <v>       0.50000000       0.50000000       0.50000000 </v>
   <v>       0.50000000       0.50000000       0.30000000 </v>
  </varray>
  <varray name="selective"  type="logical" >
   <v type="logical" >  F  F  F </v>
   <v type="logical" >  F  F  T </v>
  </varray>
  <varray name="velocities" >
   <v>       0.00000000       0.00000000       0.00000000 </v>
   <v>       0.00000000       0.00000000       0.00114210 </v>
  </varray>
  <nose>
   <v>       0.00478657       0.00000000     600.00000000     600.00000000 </v>
  </nose>
 </structure>
 <calculation>
  <scstep>
   <time name="dav">    2.64    2.64</time>
   <time name="total">    2.70    2.71</time>
   <energy>
    <i name="alphaZ">      1.12917879 </i>
    <i name="ewald">     11.03467847 </i>
    <i name="hartreedc">  -2558.94004272 </i>
    <i name="XCdc">     87.94711321 </i>
    <i name="pawpsdc">   2456.41331976 </i>
    <i name="pawaedc">  -2668.09693425 </i>
    <i name="eentropy">     -0.03584359 </i>
    <i name="bandstr">     -4.80079484 </i>
    <i name="atom">   2781.95309050 </i>
    <i name="e_fr_energy">    106.60376533 </i>
    <i name="e_wo_entrp">    106.63960891 </i>
    <i name="e_0_energy">    106.62168712 </i>
   </energy>
  </scstep>
  <scstep>
   <time name="dav">    2.62    2.63</time>
   <time name="total">    2.62    2.63</time>
   <energy>
    <i name="e_fr_energy">     -1.90909138 </i>
    <i name="e_wo_entrp">     -1.90909138 </i>
    <i name="e_0_energy">     -1.90909138 </i>
   </energy>
  </scstep>
  <scstep>
   <time name="dav">    3.37    3.39</time>
   <time name="total">    3.37    3.39</time>
   <energy>
    <i name="e_fr_energy">     -2.94040572 </i>
    <i name="e_wo_entrp">     -2.94040572 </i>
    <i name="e_0_energy">     -2.94040572 </i>
   </energy>
  </scstep>
  <scstep>
   <time name="dav">    3.84    3.85</time>
   <time name="total">    3.84    3.85</time>
   <energy>
    <i name="e_fr_energy">     -2.94532007 </i>
    <i name="e_wo_entrp">     -2.94532007 </i>
    <i name="e_0_energy">     -2.94532007 </i>
   </energy>
  </scstep>
  <scstep>
   <time name="dav">    3.96    3.97</time>
   <time name="total">    4.06    4.08</time>
   <energy>
    <i name="e_fr_energy">     -2.94532309 </i>
    <i name="e_wo_entrp">     -2.94532309 </i>
    <i name="e_0_energy">     -2.94532309 </i>
   </energy>
  </scstep>
  <scstep>
   <time name="dav">    4.23    4.24</time>
   <time name="total">    4.38    4.39</time>
   <energy>
    <i name="e_fr_energy">     -2.66705908 </i>
    <i name="e_wo_entrp">     -2.66705908 </i>
    <i name="e_0_energy">     -2.66705908 </i>
   </energy>
  </scstep>
  <scstep>
   <time name="dav">    4.41    4.42</time>
   <time name="total">    4.57    4.57</time>
   <energy>
    <i name="e_fr_energy">     -2.59685578 </i>
    <i name="e_wo_entrp">     -2.59685578 </i>
    <i name="e_0_energy">     -2.59685578 </i>
   </energy>
  </scstep>
  <scstep>
   <time name="dav">    4.29    4.30</time>
   <time name="total">    4.44    4.46</time>
   <energy>
    <i name="e_fr_energy">     -2.57087538 </i>
    <i name="e_wo_entrp">     -2.57087538 </i>
    <i name="e_0_energy">     -2.57087538 </i>
   </energy>
  </scstep>
  <scstep>
   <time name="dav">    4.60    4.61</time>
   <time name="total">    4.75    4.76</time>
   <energy>
    <i name="e_fr_energy">     -2.56862643 </i>
    <i name="e_wo_entrp">     -2.56862643 </i>
    <i name="e_0_energy">     -2.56862643 </i>
   </energy>
  </scstep>
  <scstep>
   <time name="dav">    4.30    4.33</time>
   <time name="total">    4.45    4.49</time>
   <energy>
    <i name="e_fr_energy">     -2.56994157 </i>
    <i name="e_wo_entrp">     -2.56994157 </i>
    <i name="e_0_energy">     -2.56994157 </i>
   </energy>
  </scstep>
  <scstep>
   <time name="dav">    4.14    4.15</time>
   <time name="total">    4.29    4.30</time>
   <energy>
    <i name="e_fr_energy">     -2.57236435 </i>
    <i name="e_wo_entrp">     -2.57236435 </i>
    <i name="e_0_energy">     -2.57236435 </i>
   </energy>
  </scstep>
  <scstep>
   <time name="dav">    4.62    4.64</time>
   <time name="total">    4.77    4.79</time>
   <energy>
    <i name="e_fr_energy">     -2.57496637 </i>
    <i name="e_wo_entrp">     -2.57496637 </i>
    <i name="e_0_energy">     -2.57496637 </i>
   </energy>
  </scstep>
  <scstep>
   <time name="dav">    4.51    4.52</time>
   <time name="total">    4.67    4.68</time>
   <energy>
    <i name="e_fr_energy">     -2.57619337 </i>
    <i name="e_wo_entrp">     -2.57619337 </i>
    <i name="e_0_energy">     -2.57619337 </i>
   </energy>
  </scstep>
  <scstep>
   <time name="dav">    4.72    4.74</time>
   <time name="total">    4.88    4.90</time>
   <energy>
    <i name="e_fr_energy">     -2.57681875 </i>
    <i name="e_wo_entrp">     -2.57681875 </i>
    <i name="e_0_energy">     -2.57681875 </i>
   </energy>
  </scstep>
  <scstep>
   <time name="dav">    4.04    4.04</time>
   <time name="total">    4.19    4.20</time>
   <energy>
    <i name="e_fr_energy">     -2.57698812 </i>
    <i name="e_wo_entrp">     -2.57698812 </i>
    <i name="e_0_energy">     -2.57698812 </i>
   </energy>
  </scstep>
  <scstep>
   <time name="dav">    4.34    4.36</time>
   <time name="total">    4.50    4.52</time>
   <energy>
    <i name="e_fr_energy">     -2.57701896 </i>
    <i name="e_wo_entrp">     -2.57701896 </i>
    <i name="e_0_energy">     -2.57701896 </i>
   </energy>
  </scstep>
  <scstep>
   <time name="dav">    4.31    4.32</time>
   <time name="total">    4.47    4.47</time>
   <energy>
    <i name="e_fr_energy">     -2.57704968 </i>
    <i name="e_wo_entrp">     -2.57704968 </i>
    <i name="e_0_energy">     -2.57704968 </i>
   </energy>
  </scstep>
  <scstep>
   <time name="dav">    4.48    4.49</time>
   <time name="total">    4.64    4.65</time>
   <energy>
    <i name="e_fr_energy">     -2.57705604 </i>
    <i name="e_wo_entrp">     -2.57705604 </i>
    <i name="e_0_energy">     -2.57705604 </i>
   </energy>
  </scstep>
  <scstep>
   <time name="dav">    4.09    4.10</time>
   <time name="total">    4.25    4.26</time>
   <energy>
    <i name="e_fr_energy">     -2.57706225 </i>
    <i name="e_wo_entrp">     -2.57706225 </i>
    <i name="e_0_energy">     -2.57706225 </i>
   </energy>
  </scstep>
  <scstep>
   <time name="dav">    4.58    4.59</time>
   <time name="total">    4.74    4.75</time>
   <energy>
    <i name="e_fr_energy">     -2.57706289 </i>
    <i name="e_wo_entrp">     -2.57706289 </i>
    <i name="e_0_energy">     -2.57706289 </i>
   </energy>
  </scstep>
  <scstep>
   <time name="dav">    3.36    3.38</time>
   <time name="total">    3.52    3.54</time>
   <energy>
    <i name="e_fr_energy">     -2.57706360 </i>
    <i name="e_wo_entrp">     -2.57706360 </i>
    <i name="e_0_energy">     -2.57706360 </i>
   </energy>
  </scstep>
  <scstep>
   <time name="dav">    4.49    4.50</time>
   <time name="total">    4.65    4.66</time>
   <energy>
    <i name="e_fr_energy">     -2.57706376 </i>
    <i name="e_wo_entrp">     -2.57706376 </i>
    <i name="e_0_energy">     -2.57706376 </i>
   </energy>
  </scstep>
  <scstep>
   <time name="dav">    3.76    3.77</time>
   <time name="total">    3.92    3.93</time>
   <energy>
    <i name="e_fr_energy">     -2.57706378 </i>
    <i name="e_wo_entrp">     -2.57706378 </i>
    <i name="e_0_energy">     -2.57706378 </i>
   </energy>
  </scstep>
  <scstep>
   <time name="dav">    3.95    3.95</time>
   <time name="total">    4.11    4.11</time>
   <energy>
    <i name="e_fr_energy">     -2.57706380 </i>
    <i name="e_wo_entrp">     -2.57706380 </i>
    <i name="e_0_energy">     -2.57706380 </i>
   </energy>
  </scstep>
  <scstep>
   <time name="dav">    3.38    3.39</time>
   <time name="total">    3.43    3.44</time>
   <energy>
    <i name="alphaZ">      1.12917879 </i>
    <i name="ewald">     11.03467847 </i>
    <i name="hartreedc">  -2561.87032758 </i>
    <i name="XCdc">     87.72228026 </i>
    <i name="pawpsdc">   2493.43146192 </i>
    <i name="pawaedc">  -2705.84595421 </i>
    <i name="eentropy">     -0.00000000 </i>
    <i name="bandstr">   -110.13147195 </i>
    <i name="atom">   2781.95309050 </i>
    <i name="e_fr_energy">     -2.57706380 </i>
    <i name="e_wo_entrp">     -2.57706380 </i>
    <i name="e_0_energy">     -2.57706380 </i>
   </energy>
  </scstep>
  <structure>
   <crystal>
    <varray name="basis" >
     <v>      14.53271978       0.00000000       0.00000000 </v>
     <v>       0.00000000      14.53271978       0.00000000 </v>
     <v>       0.00000000       0.00000000      12.26635989 </v>
    </varray>
    <i name="volume">   2590.65452435 </i>
    <varray name="rec_basis" >
     <v>       0.06881024       0.00000000       0.00000000 </v>
     <v>       0.00000000       0.06881024       0.00000000 </v>
     <v>       0.00000000       0.00000000       0.08152378 </v>
    </varray>
   </crystal>
   <varray name="positions" >
    <v>       0.50000000       0.50000000       0.50000000 </v>
    <v>       0.50000000       0.50000000       0.30000000 </v>
   </varray>
  </structure>
  <varray name="forces" >
   <v>       0.00000540       0.00000541      -1.19261136 </v>
   <v>      -0.00000539      -0.00000541       1.19261118 </v>
  </varray>
  <varray name="stress" >
   <v>      -0.02041466      -0.00000133      -0.00016133 </v>
   <v>      -0.00000133      -0.02041466      -0.00016134 </v>
   <v>      -0.00016133      -0.00016134      -1.82856033 </v>
  </varray>
  <energy>
   <i name="e_fr_energy">     -2.57706380 </i>
   <i name="e_wo_entrp">     -2.57706380 </i>
   <i name="e_0_energy">     -2.57706380 </i>
   <i name="kinetic">      0.02184393 </i>
   <i name="lattice kinetic">      0.00000000 </i>
   <i name="nosepot">      0.00000000 </i>
   <i name="nosekinetic">      0.00000000 </i>
   <i name="total">     -2.55521987 </i>
  </energy>
  <time name="totalsc">  110.75  111.09</time>
 </calculation>
 <calculation>
  <scstep>
   <time name="dav">    2.60    2.60</time>
   <time name="total">    2.75    2.76</time>
   <energy>
    <i name="alphaZ">      1.12917879 </i>
    <i name="ewald">      7.78762026 </i>
    <i name="hartreedc">  -2558.56279002 </i>
    <i name="XCdc">     87.71007656 </i>
    <i name="pawpsdc">   2493.43156525 </i>
    <i name="pawaedc">  -2705.84606233 </i>
    <i name="eentropy">     -0.00000000 </i>
    <i name="bandstr">   -110.16544242 </i>
    <i name="atom">   2781.95309050 </i>
    <i name="e_fr_energy">     -2.56276341 </i>
    <i name="e_wo_entrp">     -2.56276341 </i>
    <i name="e_0_energy">     -2.56276341 </i>
   </energy>
  </scstep>
  <scstep>
   <time name="dav">    4.48    4.49</time>
   <time name="total">    4.63    4.64</time>
   <energy>
    <i name="e_fr_energy">     -2.56288072 </i>
    <i name="e_wo_entrp">     -2.56288072 </i>
    <i name="e_0_energy">     -2.56288072 </i>
   </energy>
  </scstep>
  <scstep>
   <time name="dav">    3.18    3.18</time>
   <time name="total">    3.33    3.33</time>
   <energy>
    <i name="e_fr_energy">     -2.56287573 </i>
    <i name="e_wo_entrp">     -2.56287573 </i>
    <i name="e_0_energy">     -2.56287573 </i>
   </energy>
  </scstep>
  <scstep>
   <time name="dav">    4.43    4.46</time>
   <time name="total">    4.59    4.61</time>
   <energy>
    <i name="e_fr_energy">     -2.56287406 </i>
    <i name="e_wo_entrp">     -2.56287406 </i>
    <i name="e_0_energy">     -2.56287406 </i>
   </energy>
  </scstep>
  <scstep>
   <time name="dav">    4.25    4.26</time>
   <time name="total">    4.40    4.41</time>
   <energy>
    <i name="e_fr_energy">     -2.56287361 </i>
    <i name="e_wo_entrp">     -2.56287361 </i>
    <i name="e_0_energy">     -2.56287361 </i>
   </energy>
  </scstep>
  <scstep>
   <time name="dav">    3.99    4.00</time>
   <time name="total">    4.15    4.16</time>
   <energy>
    <i name="e_fr_energy">     -2.56287361 </i>
    <i name="e_wo_entrp">     -2.56287361 </i>
    <i name="e_0_energy">     -2.56287361 </i>
   </energy>
  </scstep>
  <scstep>
   <time name="dav">    5.07    5.09</time>
   <time name="total">    5.22    5.25</time>
   <energy>
    <i name="e_fr_energy">     -2.56287365 </i>
    <i name="e_wo_entrp">     -2.56287365 </i>
    <i name="e_0_energy">     -2.56287365 </i>
   </energy>
  </scstep>
  <scstep>
   <time name="dav">    4.32    4.33</time>
   <time name="total">    4.47    4.48</time>
   <energy>
    <i name="e_fr_energy">     -2.56287375 </i>
    <i name="e_wo_entrp">     -2.56287375 </i>
    <i name="e_0_energy">     -2.56287375 </i>
   </energy>
  </scstep>
  <scstep>
   <time name="dav">    4.15    4.21</time>
   <time name="total">    4.31    4.37</time>
   <energy>
    <i name="e_fr_energy">     -2.56287383 </i>
    <i name="e_wo_entrp">     -2.56287383 </i>
    <i name="e_0_energy">     -2.56287383 </i>
   </energy>
  </scstep>
  <scstep>
   <time name="dav">    4.17    4.18</time>
   <time name="total">    4.32    4.33</time>
   <energy>
    <i name="e_fr_energy">     -2.56287389 </i>
    <i name="e_wo_entrp">     -2.56287389 </i>
    <i name="e_0_energy">     -2.56287389 </i>
   </energy>
  </scstep>
  <scstep>
   <time name="dav">    4.15    4.19</time>
   <time name="total">    4.31    4.34</time>
   <energy>
    <i name="e_fr_energy">     -2.56287392 </i>
    <i name="e_wo_entrp">     -2.56287392 </i>
    <i name="e_0_energy">     -2.56287392 </i>
   </energy>
  </scstep>
  <scstep>
   <time name="dav">    4.21    4.22</time>
   <time name="total">    4.36    4.37</time>
   <energy>
    <i name="e_fr_energy">     -2.56287395 </i>
    <i name="e_wo_entrp">     -2.56287395 </i>
    <i name="e_0_energy">     -2.56287395 </i>
   </energy>
  </scstep>
  <scstep>
   <time name="dav">    4.57    4.59</time>
   <time name="total">    4.72    4.75</time>
   <energy>
    <i name="e_fr_energy">     -2.56287397 </i>
    <i name="e_wo_entrp">     -2.56287397 </i>
    <i name="e_0_energy">     -2.56287397 </i>
   </energy>
  </scstep>
  <scstep>
   <time name="dav">    4.29    4.30</time>
   <time name="total">    4.44    4.46</time>
   <energy>
    <i name="e_fr_energy">     -2.56287398 </i>
    <i name="e_wo_entrp">     -2.56287398 </i>
    <i name="e_0_energy">     -2.56287398 </i>
   </energy>
  </scstep>
  <scstep>
   <time name="dav">    4.29    4.30</time>
   <time name="total">    4.35    4.35</time>
   <energy>
    <i name="alphaZ">      1.12917879 </i>
    <i name="ewald">      7.78762026 </i>
    <i name="hartreedc">  -2558.69610577 </i>
    <i name="XCdc">     87.71642776 </i>
    <i name="pawpsdc">   2492.11801208 </i>
    <i name="pawaedc">  -2704.50668092 </i>
    <i name="eentropy">     -0.00000000 </i>
    <i name="bandstr">   -110.06441669 </i>
    <i name="atom">   2781.95309050 </i>
    <i name="e_fr_energy">     -2.56287399 </i>
    <i name="e_wo_entrp">     -2.56287399 </i>
    <i name="e_0_energy">     -2.56287399 </i>
   </energy>
  </scstep>
  <structure>
   <crystal>
    <varray name="basis" >
     <v>      14.53271978       0.00000000       0.00000000 </v>
     <v>       0.00000000      14.53271978       0.00000000 </v>
     <v>       0.00000000       0.00000000      12.26635989 </v>
    </varray>
    <i name="volume">   2590.65452435 </i>
    <varray name="rec_basis" >
     <v>       0.06881024       0.00000000       0.00000000 </v>
     <v>       0.00000000       0.06881024       0.00000000 </v>
     <v>       0.00000000       0.00000000       0.08152378 </v>
    </varray>
   </crystal>
   <varray name="positions" >
    <v>       0.50000000       0.50000000       0.50000000 </v>
    <v>       0.50000000       0.50000000       0.29904243 </v>
   </varray>
  </structure>
  <varray name="forces" >
   <v>       0.00000535       0.00000535      -1.22187035 </v>
   <v>      -0.00000750      -0.00000750       1.22210902 </v>
  </varray>
  <varray name="stress" >
   <v>      -0.02039219      -0.00000126      -0.00016179 </v>
   <v>      -0.00000126      -0.02039219      -0.00016178 </v>
   <v>      -0.00016178      -0.00016178      -1.88246613 </v>
  </varray>
  <energy>
   <i name="e_fr_energy">     -2.56287399 </i>
   <i name="e_wo_entrp">     -2.56287399 </i>
   <i name="e_0_energy">     -2.56287399 </i>
   <i name="kinetic">      0.01174743 </i>
   <i name="lattice kinetic">      0.00000000 </i>
   <i name="nosepot">     -0.00009474 </i>
   <i name="nosekinetic">      0.00002814 </i>
   <i name="total">     -2.55119316 </i>
  </energy>
  <dos>
   <i name="efermi">     -4.43276748 </i>
   <total>
    <array>
     <dimension dim="1">gridpoints</dimension>
     <dimension dim="2">spin</dimension>
     <field>energy</field>
     <field>total</field>
     <field>integrated</field>
     <set>
      <set comment="spin 1">
       <r>    -6.4954     0.0000     0.0000 </r>
       <r>    -6.4586     0.0000     0.0000 </r>
       <r>    -6.4217     0.0000     0.0000 </r>
       <r>    -6.3849     0.0000     0.0000 </r>
       <r>    -6.3481     0.0000     0.0000 </r>
       <r>    -6.3113     0.0000     0.0000 </r>
       <r>    -6.2744     0.0000     0.0000 </r>
       <r>    -6.2376     0.0000     0.0000 </r>
       <r>    -6.2008     0.0000     0.0000 </r>
       <r>    -6.1640     0.0001     0.0000 </r>
       <r>    -6.1272     0.0080     0.0003 </r>
       <r>    -6.0903     0.3147     0.0119 </r>
       <r>    -6.0535     4.4311     0.1752 </r>
       <r>    -6.0167    22.6816     1.0112 </r>
       <r>    -5.9799    42.7626     2.5872 </r>
       <r>    -5.9430    29.8751     3.6883 </r>
       <r>    -5.9062     7.7070     3.9723 </r>
       <r>    -5.8694     0.7258     3.9991 </r>
       <r>    -5.8326     0.0246     4.0000 </r>
       <r>    -5.7958     0.0003     4.0000 </r>
       <r>    -5.7589     0.0000     4.0000 </r>
       <r>    -5.7221     0.0000     4.0000 </r>
       <r>    -5.6853     0.0000     4.0000 </r>
       <r>    -5.6485     0.0000     4.0000 </r>
       <r>    -5.6116     0.0000     4.0000 </r>
       <r>    -5.5748     0.0000     4.0000 </r>
       <r>    -5.5380     0.0000     4.0000 </r>
       <r>    -5.5012     0.0000     4.0000 </r>
       <r>    -5.4644     0.0000     4.0000 </r>
       <r>    -5.4275     0.0005     4.0000 </r>
       <r>    -5.3907     0.0439     4.0016 </r>
       <r>    -5.3539     1.3249     4.0505 </r>
       <r>    -5.3171    14.4512     4.5830 </r>
       <r>    -5.2802    57.7986     6.7131 </r>
       <r>    -5.2434    85.7264     9.8727 </r>
       <r>    -5.2066    47.3159    11.6166 </r>
       <r>    -5.1698     9.6605    11.9727 </r>
       <r>    -5.1330     0.7202    11.9993 </r>
       <r>    -5.0961     0.0205    12.0000 </r>
       <r>    -5.0593     0.0868    12.0032 </r>
       <r>    -5.0225     2.3203    12.0887 </r>
       <r>    -4.9857    23.1413    12.9414 </r>
       <r>    -4.9489    87.3713    16.1612 </r>
       <r>    -4.9120   126.4923    20.8232 </r>
       <r>    -4.8752    73.4143    23.5293 </r>
       <r>    -4.8384    39.2804    24.9769 </r>
       <r>    -4.8016    72.0151    27.6308 </r>
       <r>    -4.7647    82.7486    30.6807 </r>
       <r>    -4.7279    64.9745    33.0753 </r>
       <r>    -4.6911   102.9859    36.8705 </r>
       <r>    -4.6543   121.2790    41.3406 </r>
       <r>    -4.6175    59.6509    43.5397 </r>
       <r>    -4.5806    11.5882    43.9669 </r>
       <r>    -4.5438     0.8712    43.9991 </r>
       <r>    -4.5070     0.0248    44.0000 </r>
       <r>    -4.4702     0.0003    44.0000 </r>
       <r>    -4.4333     0.0000    44.0000 </r>
       <r>    -4.3965     0.0000    44.0000 </r>
       <r>    -4.3597     0.0000    44.0000 </r>
       <r>    -4.3229     0.0000    44.0000 </r>
       <r>    -4.2861     0.0000    44.0000 </r>
       <r>    -4.2492     0.0000    44.0000 </r>
       <r>    -4.2124     0.0000    44.0000 </r>
       <r>    -4.1756     0.0000    44.0000 </r>
       <r>    -4.1388     0.0000    44.0000 </r>
       <r>    -4.1019     0.0000    44.0000 </r>
       <r>    -4.0651     0.0000    44.0000 </r>
       <r>    -4.0283     0.0000    44.0000 </r>
       <r>    -3.9915     0.0000    44.0000 </r>
       <r>    -3.9547     0.0000    44.0000 </r>
       <r>    -3.9178     0.0000    44.0000 </r>
       <r>    -3.8810     0.0000    44.0000 </r>
       <r>    -3.8442     0.0000    44.0000 </r>
       <r>    -3.8074     0.0000    44.0000 </r>
       <r>    -3.7705     0.0000    44.0000 </r>
       <r>    -3.7337     0.0000    44.0000 </r>
       <r>    -3.6969     0.0000    44.0000 </r>
       <r>    -3.6601     0.0000    44.0000 </r>
       <r>    -3.6233     0.0000    44.0000 </r>
       <r>    -3.5864     0.0000    44.0000 </r>
       <r>    -3.5496     0.0000    44.0000 </r>
       <r>    -3.5128     0.0000    44.0000 </r>
       <r>    -3.4760     0.0000    44.0000 </r>
       <r>    -3.4391     0.0000    44.0000 </r>
       <r>    -3.4023     0.0010    44.0000 </r>
       <r>    -3.3655     0.0592    44.0022 </r>
       <r>    -3.3287     1.2557    44.0485 </r>
       <r>    -3.2919    10.1403    44.4220 </r>
       <r>    -3.2550    32.0417    45.6028 </r>
       <r>    -3.2182    40.3547    47.0902 </r>
       <r>    -3.1814    20.3219    47.8394 </r>
       <r>    -3.1446     4.0384    47.9883 </r>
       <r>    -3.1078     0.3089    47.9997 </r>
       <r>    -3.0709     0.0088    48.0000 </r>
       <r>    -3.0341     0.0001    48.0000 </r>
       <r>    -2.9973     0.0000    48.0000 </r>
       <r>    -2.9605     0.0000    48.0000 </r>
       <r>    -2.9236     0.0000    48.0000 </r>
       <r>    -2.8868     0.0000    48.0000 </r>
       <r>    -2.8500     0.0000    48.0000 </r>
       <r>    -2.8132     0.0000    48.0000 </r>
       <r>    -2.7764     0.0000    48.0000 </r>
       <r>    -2.7395     0.0000    48.0000 </r>
       <r>    -2.7027     0.0000    48.0000 </r>
       <r>    -2.6659     0.0000    48.0000 </r>
       <r>    -2.6291     0.0000    48.0000 </r>
       <r>    -2.5922     0.0000    48.0000 </r>
       <r>    -2.5554     0.0000    48.0000 </r>
       <r>    -2.5186     0.0000    48.0000 </r>
       <r>    -2.4818     0.0000    48.0000 </r>
       <r>    -2.4450     0.0000    48.0000 </r>
       <r>    -2.4081     0.0000    48.0000 </r>
       <r>    -2.3713     0.0000    48.0000 </r>
       <r>    -2.3345     0.0000    48.0000 </r>
       <r>    -2.2977     0.0000    48.0000 </r>
       <r>    -2.2608     0.0000    48.0000 </r>
       <r>    -2.2240     0.0000    48.0000 </r>
       <r>    -2.1872     0.0000    48.0000 </r>
       <r>    -2.1504     0.0000    48.0000 </r>
       <r>    -2.1136     0.0000    48.0000 </r>
       <r>    -2.0767     0.0000    48.0000 </r>
       <r>    -2.0399     0.0000    48.0000 </r>
       <r>    -2.0031     0.0000    48.0000 </r>
       <r>    -1.9663     0.0000    48.0000 </r>
       <r>    -1.9294     0.0000    48.0000 </r>
       <r>    -1.8926     0.0000    48.0000 </r>
       <r>    -1.8558     0.0000    48.0000 </r>
       <r>    -1.8190     0.0000    48.0000 </r>
       <r>    -1.7822     0.0000    48.0000 </r>
       <r>    -1.7453     0.0000    48.0000 </r>
       <r>    -1.7085     0.0000    48.0000 </r>
       <r>    -1.6717     0.0000    48.0000 </r>
       <r>    -1.6349     0.0000    48.0000 </r>
       <r>    -1.5980     0.0000    48.0000 </r>
       <r>    -1.5612     0.0000    48.0000 </r>
       <r>    -1.5244     0.0000    48.0000 </r>
       <r>    -1.4876     0.0000    48.0000 </r>
       <r>    -1.4508     0.0000    48.0000 </r>
       <r>    -1.4139     0.0000    48.0000 </r>
       <r>    -1.3771     0.0000    48.0000 </r>
       <r>    -1.3403     0.0000    48.0000 </r>
       <r>    -1.3035     0.0000    48.0000 </r>
       <r>    -1.2666     0.0000    48.0000 </r>
       <r>    -1.2298     0.0000    48.0000 </r>
       <r>    -1.1930     0.0001    48.0000 </r>
       <r>    -1.1562     0.0084    48.0003 </r>
       <r>    -1.1194     0.3714    48.0140 </r>
       <r>    -1.0825     6.0117    48.2355 </r>
       <r>    -1.0457    36.0476    49.5640 </r>
       <r>    -1.0089    81.0687    52.5518 </r>
       <r>    -0.9721    68.8192    55.0883 </r>
       <r>    -0.9353    21.9984    55.8991 </r>
       <r>    -0.8984     2.6199    55.9957 </r>
       <r>    -0.8616     0.1148    55.9999 </r>
       <r>    -0.8248     0.0204    56.0007 </r>
       <r>    -0.7880     0.4205    56.0162 </r>
       <r>    -0.7511     3.5384    56.1466 </r>
       <r>    -0.7143    11.2545    56.5613 </r>
       <r>    -0.6775    14.2553    57.0867 </r>
       <r>    -0.6407    12.5153    57.5480 </r>
       <r>    -0.6039    22.4655    58.3759 </r>
       <r>    -0.5670    27.7405    59.3983 </r>
       <r>    -0.5302    13.6162    59.9003 </r>
       <r>    -0.4934     2.5269    59.9934 </r>
       <r>    -0.4566     0.1743    59.9998 </r>
       <r>    -0.4197     0.0044    60.0000 </r>
       <r>    -0.3829     0.0000    60.0000 </r>
       <r>    -0.3461     0.0000    60.0000 </r>
       <r>    -0.3093     0.0000    60.0000 </r>
       <r>    -0.2725     0.0000    60.0000 </r>
       <r>    -0.2356     0.0000    60.0000 </r>
       <r>    -0.1988     0.0000    60.0000 </r>
       <r>    -0.1620     0.0000    60.0000 </r>
       <r>    -0.1252     0.0000    60.0000 </r>
       <r>    -0.0883     0.0000    60.0000 </r>
       <r>    -0.0515     0.0001    60.0000 </r>
       <r>    -0.0147     0.0048    60.0002 </r>
       <r>     0.0221     0.0886    60.0034 </r>
       <r>     0.0589     0.6312    60.0267 </r>
       <r>     0.0958     2.0807    60.1034 </r>
       <r>     0.1326     5.0085    60.2880 </r>
       <r>     0.1694    11.2951    60.7042 </r>
       <r>     0.2062    19.7391    61.4317 </r>
       <r>     0.2431    26.0063    62.3902 </r>
       <r>     0.2799    27.2616    63.3949 </r>
       <r>     0.3167    25.9394    64.3509 </r>
       <r>     0.3535    31.7138    65.5198 </r>
       <r>     0.3903    35.5897    66.8314 </r>
       <r>     0.4272    46.7915    68.5559 </r>
       <r>     0.4640    60.0680    70.7698 </r>
       <r>     0.5008    49.9388    72.6104 </r>
       <r>     0.5376    34.0377    73.8649 </r>
       <r>     0.5745    37.8581    75.2601 </r>
       <r>     0.6113    50.9903    77.1394 </r>
       <r>     0.6481    39.2430    78.5858 </r>
       <r>     0.6849    22.1926    79.4038 </r>
       <r>     0.7217    21.1884    80.1847 </r>
       <r>     0.7586    18.2119    80.8559 </r>
       <r>     0.7954    14.7959    81.4013 </r>
       <r>     0.8322    20.2871    82.1489 </r>
       <r>     0.8690    35.3733    83.4526 </r>
       <r>     0.9058    51.9062    85.3656 </r>
       <r>     0.9427    49.2506    87.1808 </r>
       <r>     0.9795    40.2547    88.6645 </r>
       <r>     1.0163    38.0042    90.0652 </r>
       <r>     1.0531    33.4316    91.2973 </r>
       <r>     1.0900    37.9799    92.6971 </r>
       <r>     1.1268    48.3978    94.4808 </r>
       <r>     1.1636    47.9738    96.2489 </r>
       <r>     1.2004    41.2232    97.7683 </r>
       <r>     1.2372    38.8735    99.2010 </r>
       <r>     1.2741    48.1706   100.9763 </r>
       <r>     1.3109    55.8323   103.0341 </r>
       <r>     1.3477    46.3040   104.7407 </r>
       <r>     1.3845    35.3316   106.0429 </r>
       <r>     1.4214    37.6089   107.4290 </r>
       <r>     1.4582    40.9161   108.9370 </r>
       <r>     1.4950    31.4967   110.0978 </r>
       <r>     1.5318    18.5696   110.7823 </r>
       <r>     1.5686    25.5488   111.7238 </r>
       <r>     1.6055    49.5444   113.5498 </r>
       <r>     1.6423    72.8014   116.2329 </r>
       <r>     1.6791    77.8694   119.1029 </r>
       <r>     1.7159    64.3784   121.4757 </r>
       <r>     1.7528    50.5091   123.3372 </r>
       <r>     1.7896    42.6748   124.9100 </r>
       <r>     1.8264    42.7718   126.4864 </r>
       <r>     1.8632    47.3526   128.2317 </r>
       <r>     1.9000    52.5392   130.1680 </r>
       <r>     1.9369    55.2909   132.2058 </r>
       <r>     1.9737    51.2248   134.0938 </r>
       <r>     2.0105    51.4581   135.9903 </r>
       <r>     2.0473    51.8967   137.9030 </r>
       <r>     2.0842    57.2896   140.0145 </r>
       <r>     2.1210    58.2363   142.1608 </r>
       <r>     2.1578    44.0405   143.7840 </r>
       <r>     2.1946    37.6084   145.1701 </r>
       <r>     2.2314    47.7021   146.9282 </r>
       <r>     2.2683    57.5371   149.0487 </r>
       <r>     2.3051    68.7717   151.5834 </r>
       <r>     2.3419    82.3246   154.6175 </r>
       <r>     2.3787    69.7282   157.1874 </r>
       <r>     2.4156    52.7222   159.1306 </r>
       <r>     2.4524    54.4588   161.1377 </r>
       <r>     2.4892    45.7477   162.8238 </r>
       <r>     2.5260    45.3785   164.4962 </r>
       <r>     2.5628    67.4030   166.9804 </r>
       <r>     2.5997    77.5828   169.8398 </r>
       <r>     2.6365    63.9337   172.1962 </r>
       <r>     2.6733    56.4652   174.2772 </r>
       <r>     2.7101    61.8258   176.5559 </r>
       <r>     2.7470    55.0865   178.5862 </r>
       <r>     2.7838    53.7889   180.5686 </r>
       <r>     2.8206    58.4343   182.7222 </r>
       <r>     2.8574    62.0520   185.0092 </r>
       <r>     2.8942    67.1969   187.4858 </r>
       <r>     2.9311    56.1155   189.5540 </r>
       <r>     2.9679    44.8229   191.2060 </r>
       <r>     3.0047    52.6025   193.1447 </r>
       <r>     3.0415    66.3350   195.5895 </r>
       <r>     3.0783    74.8707   198.3490 </r>
       <r>     3.1152    83.4892   201.4260 </r>
       <r>     3.1520    85.0287   204.5599 </r>
       <r>     3.1888    76.7588   207.3889 </r>
       <r>     3.2256    77.0652   210.2292 </r>
       <r>     3.2625    80.2048   213.1852 </r>
       <r>     3.2993    70.6540   215.7892 </r>
       <r>     3.3361    58.1094   217.9309 </r>
       <r>     3.3729    63.2179   220.2609 </r>
       <r>     3.4097    74.1334   222.9931 </r>
       <r>     3.4466    70.6380   225.5965 </r>
       <r>     3.4834    68.6245   228.1258 </r>
       <r>     3.5202    72.3292   230.7915 </r>
       <r>     3.5570    66.3472   233.2368 </r>
       <r>     3.5939    49.2134   235.0506 </r>
       <r>     3.6307    43.2545   236.6448 </r>
       <r>     3.6675    58.6501   238.8064 </r>
       <r>     3.7043    61.2358   241.0633 </r>
       <r>     3.7411    49.3879   242.8835 </r>
       <r>     3.7780    44.4078   244.5202 </r>
       <r>     3.8148    40.4049   246.0094 </r>
       <r>     3.8516    41.2754   247.5306 </r>
       <r>     3.8884    41.7137   249.0680 </r>
       <r>     3.9253    35.9695   250.3937 </r>
       <r>     3.9621    40.5248   251.8873 </r>
       <r>     3.9989    49.2584   253.7028 </r>
       <r>     4.0357    38.5919   255.1251 </r>
       <r>     4.0725    17.9216   255.7856 </r>
       <r>     4.1094     5.0161   255.9705 </r>
       <r>     4.1462     0.7503   255.9982 </r>
       <r>     4.1830     0.0488   256.0000 </r>
       <r>     4.2198     0.0012   256.0000 </r>
       <r>     4.2567     0.0000   256.0000 </r>
       <r>     4.2935     0.0000   256.0000 </r>
       <r>     4.3303     0.0000   256.0000 </r>
       <r>     4.3671     0.0000   256.0000 </r>
       <r>     4.4039     0.0000   256.0000 </r>
       <r>     4.4408     0.0000   256.0000 </r>
       <r>     4.4776     0.0000   256.0000 </r>
       <r>     4.5144     0.0000   256.0000 </r>
       <r>     4.5512     0.0000   256.0000 </r>
      </set>
     </set>
    </array>
   </total>
  </dos>
  <time name="totalsc">   71.54   71.83</time>
  <eigenvalues>
   <array>
    <dimension dim="1">band</dimension>
    <dimension dim="2">kpoint</dimension>
    <dimension dim="3">spin</dimension>
    <field>eigene</field>
    <field>occ</field>
    <set>
     <set comment="spin 1">
      <set comment="kpoint 1">
       <r>   -5.9830    1.0000 </r>
       <r>   -5.2613    1.0000 </r>
       <r>   -5.2613    1.0000 </r>
       <r>   -4.9424    1.0000 </r>
       <r>   -4.9355    1.0000 </r>
       <r>   -4.9355    1.0000 </r>
       <r>   -4.8051    1.0000 </r>
       <r>   -4.8051    1.0000 </r>
       <r>   -4.6958    1.0000 </r>
       <r>   -4.6958    1.0000 </r>
       <r>   -4.6855    1.0000 </r>
       <r>   -3.2577    0.0000 </r>
       <r>   -1.0176    0.0000 </r>
       <r>   -1.0176    0.0000 </r>
       <r>   -0.7215    0.0000 </r>
       <r>    0.0875    0.0000 </r>
       <r>    0.5942    0.0000 </r>
       <r>    0.5942    0.0000 </r>
       <r>    0.6173    0.0000 </r>
       <r>    0.8007    0.0000 </r>
       <r>    0.8007    0.0000 </r>
       <r>    0.8981    0.0000 </r>
       <r>    0.9558    0.0000 </r>
       <r>    0.9857    0.0000 </r>
       <r>    1.1160    0.0000 </r>
       <r>    1.3860    0.0000 </r>
       <r>    1.3860    0.0000 </r>
       <r>    1.5962    0.0000 </r>
       <r>    1.6175    0.0000 </r>
       <r>    1.6182    0.0000 </r>
       <r>    1.7553    0.0000 </r>
       <r>    1.7740    0.0000 </r>
       <r>    1.7740    0.0000 </r>
       <r>    1.8274    0.0000 </r>
       <r>    1.9806    0.0000 </r>
       <r>    1.9806    0.0000 </r>
       <r>    2.1275    0.0000 </r>
       <r>    2.1703    0.0000 </r>
       <r>    2.3093    0.0000 </r>
       <r>    2.3199    0.0000 </r>
       <r>    2.3199    0.0000 </r>
       <r>    2.3734    0.0000 </r>
       <r>    2.4318    0.0000 </r>
       <r>    2.7618    0.0000 </r>
       <r>    2.7618    0.0000 </r>
       <r>    2.9162    0.0000 </r>
       <r>    2.9162    0.0000 </r>
       <r>    3.0186    0.0000 </r>
       <r>    3.0425    0.0000 </r>
       <r>    3.1619    0.0000 </r>
       <r>    3.3031    0.0000 </r>
       <r>    3.3182    0.0000 </r>
       <r>    3.3182    0.0000 </r>
       <r>    3.3250    0.0000 </r>
       <r>    3.4548    0.0000 </r>
       <r>    3.4909    0.0000 </r>
       <r>    3.4909    0.0000 </r>
       <r>    3.5214    0.0000 </r>
       <r>    3.5851    0.0000 </r>
       <r>    3.8567    0.0000 </r>
       <r>    3.8567    0.0000 </r>
       <r>    3.9755    0.0000 </r>
       <r>    4.0060    0.0000 </r>
       <r>    4.0060    0.0000 </r>
      </set>
      <set comment="kpoint 2">
       <r>   -5.9830    1.0000 </r>
       <r>   -5.2613    1.0000 </r>
       <r>   -5.2612    1.0000 </r>
       <r>   -4.9424    1.0000 </r>
       <r>   -4.9355    1.0000 </r>
       <r>   -4.9355    1.0000 </r>
       <r>   -4.8051    1.0000 </r>
       <r>   -4.8051    1.0000 </r>
       <r>   -4.6958    1.0000 </r>
       <r>   -4.6958    1.0000 </r>
       <r>   -4.6855    1.0000 </r>
       <r>   -3.2577    0.0000 </r>
       <r>   -1.0241    0.0000 </r>
       <r>   -1.0170    0.0000 </r>
       <r>   -0.7170    0.0000 </r>
       <r>    0.1745    0.0000 </r>
       <r>    0.4081    0.0000 </r>
       <r>    0.5597    0.0000 </r>
       <r>    0.5973    0.0000 </r>
       <r>    0.8035    0.0000 </r>
       <r>    0.8407    0.0000 </r>
       <r>    1.0037    0.0000 </r>
       <r>    1.0050    0.0000 </r>
       <r>    1.0582    0.0000 </r>
       <r>    1.0846    0.0000 </r>
       <r>    1.2957    0.0000 </r>
       <r>    1.3861    0.0000 </r>
       <r>    1.4828    0.0000 </r>
       <r>    1.6525    0.0000 </r>
       <r>    1.7047    0.0000 </r>
       <r>    1.7600    0.0000 </r>
       <r>    1.7635    0.0000 </r>
       <r>    1.8204    0.0000 </r>
       <r>    1.8331    0.0000 </r>
       <r>    2.0277    0.0000 </r>
       <r>    2.0470    0.0000 </r>
       <r>    2.0989    0.0000 </r>
       <r>    2.1289    0.0000 </r>
       <r>    2.2815    0.0000 </r>
       <r>    2.3339    0.0000 </r>
       <r>    2.3439    0.0000 </r>
       <r>    2.4213    0.0000 </r>
       <r>    2.6178    0.0000 </r>
       <r>    2.7023    0.0000 </r>
       <r>    2.7066    0.0000 </r>
       <r>    2.7156    0.0000 </r>
       <r>    2.8659    0.0000 </r>
       <r>    2.9596    0.0000 </r>
       <r>    2.9710    0.0000 </r>
       <r>    3.0746    0.0000 </r>
       <r>    3.1333    0.0000 </r>
       <r>    3.1764    0.0000 </r>
       <r>    3.2946    0.0000 </r>
       <r>    3.3396    0.0000 </r>
       <r>    3.4356    0.0000 </r>
       <r>    3.4723    0.0000 </r>
       <r>    3.4951    0.0000 </r>
       <r>    3.6553    0.0000 </r>
       <r>    3.7030    0.0000 </r>
       <r>    3.7837    0.0000 </r>
       <r>    3.9486    0.0000 </r>
       <r>    3.9559    0.0000 </r>
       <r>    3.9597    0.0000 </r>
       <r>    3.9887    0.0000 </r>
      </set>
      <set comment="kpoint 3">
       <r>   -5.9830    1.0000 </r>
       <r>   -5.2613    1.0000 </r>
       <r>   -5.2612    1.0000 </r>
       <r>   -4.9424    1.0000 </r>
       <r>   -4.9355    1.0000 </r>
       <r>   -4.9355    1.0000 </r>
       <r>   -4.8051    1.0000 </r>
       <r>   -4.8051    1.0000 </r>
       <r>   -4.6958    1.0000 </r>
       <r>   -4.6958    1.0000 </r>
       <r>   -4.6855    1.0000 </r>
       <r>   -3.2577    0.0000 </r>
       <r>   -1.0241    0.0000 </r>
       <r>   -1.0170    0.0000 </r>
       <r>   -0.7170    0.0000 </r>
       <r>    0.1745    0.0000 </r>
       <r>    0.4081    0.0000 </r>
       <r>    0.5597    0.0000 </r>
       <r>    0.5973    0.0000 </r>
       <r>    0.8035    0.0000 </r>
       <r>    0.8407    0.0000 </r>
       <r>    1.0037    0.0000 </r>
       <r>    1.0050    0.0000 </r>
       <r>    1.0582    0.0000 </r>
       <r>    1.0846    0.0000 </r>
       <r>    1.2957    0.0000 </r>
       <r>    1.3861    0.0000 </r>
       <r>    1.4828    0.0000 </r>
       <r>    1.6525    0.0000 </r>
       <r>    1.7047    0.0000 </r>
       <r>    1.7600    0.0000 </r>
       <r>    1.7635    0.0000 </r>
       <r>    1.8204    0.0000 </r>
       <r>    1.8331    0.0000 </r>
       <r>    2.0277    0.0000 </r>
       <r>    2.0470    0.0000 </r>
       <r>    2.0989    0.0000 </r>
       <r>    2.1289    0.0000 </r>
       <r>    2.2815    0.0000 </r>
       <r>    2.3339    0.0000 </r>
       <r>    2.3439    0.0000 </r>
       <r>    2.4213    0.0000 </r>
       <r>    2.6178    0.0000 </r>
       <r>    2.7023    0.0000 </r>
       <r>    2.7066    0.0000 </r>
       <r>    2.7156    0.0000 </r>
       <r>    2.8659    0.0000 </r>
       <r>    2.9596    0.0000 </r>
       <r>    2.9710    0.0000 </r>
       <r>    3.0746    0.0000 </r>
       <r>    3.1333    0.0000 </r>
       <r>    3.1764    0.0000 </r>
       <r>    3.2946    0.0000 </r>
       <r>    3.3396    0.0000 </r>
       <r>    3.4356    0.0000 </r>
       <r>    3.4723    0.0000 </r>
       <r>    3.4951    0.0000 </r>
       <r>    3.6553    0.0000 </r>
       <r>    3.7030    0.0000 </r>
       <r>    3.7837    0.0000 </r>
       <r>    3.9486    0.0000 </r>
       <r>    3.9559    0.0000 </r>
       <r>    3.9597    0.0000 </r>
       <r>    3.9887    0.0000 </r>
      </set>
      <set comment="kpoint 4">
       <r>   -5.9830    1.0000 </r>
       <r>   -5.2613    1.0000 </r>
       <r>   -5.2612    1.0000 </r>
       <r>   -4.9424    1.0000 </r>
       <r>   -4.9355    1.0000 </r>
       <r>   -4.9355    1.0000 </r>
       <r>   -4.8051    1.0000 </r>
       <r>   -4.8051    1.0000 </r>
       <r>   -4.6958    1.0000 </r>
       <r>   -4.6958    1.0000 </r>
       <r>   -4.6855    1.0000 </r>
       <r>   -3.2577    0.0000 </r>
       <r>   -1.0234    0.0000 </r>
       <r>   -1.0232    0.0000 </r>
       <r>   -0.7131    0.0000 </r>
       <r>    0.2573    0.0000 </r>
       <r>    0.4784    0.0000 </r>
       <r>    0.4880    0.0000 </r>
       <r>    0.5642    0.0000 </r>
       <r>    0.5675    0.0000 </r>
       <r>    0.7344    0.0000 </r>
       <r>    1.0876    0.0000 </r>
       <r>    1.1489    0.0000 </r>
       <r>    1.1666    0.0000 </r>
       <r>    1.3108    0.0000 </r>
       <r>    1.3336    0.0000 </r>
       <r>    1.3634    0.0000 </r>
       <r>    1.4345    0.0000 </r>
       <r>    1.5676    0.0000 </r>
       <r>    1.5827    0.0000 </r>
       <r>    1.6438    0.0000 </r>
       <r>    1.6729    0.0000 </r>
       <r>    1.7880    0.0000 </r>
       <r>    1.8660    0.0000 </r>
       <r>    1.9987    0.0000 </r>
       <r>    2.2264    0.0000 </r>
       <r>    2.2497    0.0000 </r>
       <r>    2.2553    0.0000 </r>
       <r>    2.3096    0.0000 </r>
       <r>    2.3140    0.0000 </r>
       <r>    2.3862    0.0000 </r>
       <r>    2.4559    0.0000 </r>
       <r>    2.4985    0.0000 </r>
       <r>    2.5792    0.0000 </r>
       <r>    2.6021    0.0000 </r>
       <r>    2.7608    0.0000 </r>
       <r>    2.8042    0.0000 </r>
       <r>    2.9639    0.0000 </r>
       <r>    2.9981    0.0000 </r>
       <r>    3.0374    0.0000 </r>
       <r>    3.0517    0.0000 </r>
       <r>    3.2034    0.0000 </r>
       <r>    3.2291    0.0000 </r>
       <r>    3.2486    0.0000 </r>
       <r>    3.2863    0.0000 </r>
       <r>    3.3741    0.0000 </r>
       <r>    3.4884    0.0000 </r>
       <r>    3.6562    0.0000 </r>
       <r>    3.6938    0.0000 </r>
       <r>    3.7446    0.0000 </r>
       <r>    3.8420    0.0000 </r>
       <r>    3.9674    0.0000 </r>
       <r>    4.0074    0.0000 </r>
       <r>    4.0479    0.0000 </r>
      </set>
      <set comment="kpoint 5">
       <r>   -5.9830    1.0000 </r>
       <r>   -5.2613    1.0000 </r>
       <r>   -5.2612    1.0000 </r>
       <r>   -4.9424    1.0000 </r>
       <r>   -4.9355    1.0000 </r>
       <r>   -4.9355    1.0000 </r>
       <r>   -4.8051    1.0000 </r>
       <r>   -4.8051    1.0000 </r>
       <r>   -4.6958    1.0000 </r>
       <r>   -4.6958    1.0000 </r>
       <r>   -4.6855    1.0000 </r>
       <r>   -3.2577    0.0000 </r>
       <r>   -1.0234    0.0000 </r>
       <r>   -1.0232    0.0000 </r>
       <r>   -0.7131    0.0000 </r>
       <r>    0.2573    0.0000 </r>
       <r>    0.4784    0.0000 </r>
       <r>    0.4880    0.0000 </r>
       <r>    0.5642    0.0000 </r>
       <r>    0.5675    0.0000 </r>
       <r>    0.7344    0.0000 </r>
       <r>    1.0876    0.0000 </r>
       <r>    1.1489    0.0000 </r>
       <r>    1.1666    0.0000 </r>
       <r>    1.3108    0.0000 </r>
       <r>    1.3336    0.0000 </r>
       <r>    1.3634    0.0000 </r>
       <r>    1.4345    0.0000 </r>
       <r>    1.5676    0.0000 </r>
       <r>    1.5827    0.0000 </r>
       <r>    1.6438    0.0000 </r>
       <r>    1.6729    0.0000 </r>
       <r>    1.7880    0.0000 </r>
       <r>    1.8660    0.0000 </r>
       <r>    1.9987    0.0000 </r>
       <r>    2.2264    0.0000 </r>
       <r>    2.2497    0.0000 </r>
       <r>    2.2553    0.0000 </r>
       <r>    2.3096    0.0000 </r>
       <r>    2.3140    0.0000 </r>
       <r>    2.3862    0.0000 </r>
       <r>    2.4559    0.0000 </r>
       <r>    2.4985    0.0000 </r>
       <r>    2.5792    0.0000 </r>
       <r>    2.6021    0.0000 </r>
       <r>    2.7608    0.0000 </r>
       <r>    2.8042    0.0000 </r>
       <r>    2.9639    0.0000 </r>
       <r>    2.9981    0.0000 </r>
       <r>    3.0374    0.0000 </r>
       <r>    3.0517    0.0000 </r>
       <r>    3.2034    0.0000 </r>
       <r>    3.2291    0.0000 </r>
       <r>    3.2486    0.0000 </r>
       <r>    3.2863    0.0000 </r>
       <r>    3.3741    0.0000 </r>
       <r>    3.4884    0.0000 </r>
       <r>    3.6562    0.0000 </r>
       <r>    3.6938    0.0000 </r>
       <r>    3.7446    0.0000 </r>
       <r>    3.8420    0.0000 </r>
       <r>    3.9674    0.0000 </r>
       <r>    4.0074    0.0000 </r>
       <r>    4.0479    0.0000 </r>
      </set>
      <set comment="kpoint 6">
       <r>   -5.9829    1.0000 </r>
       <r>   -5.2612    1.0000 </r>
       <r>   -5.2612    1.0000 </r>
       <r>   -4.9422    1.0000 </r>
       <r>   -4.9355    1.0000 </r>
       <r>   -4.9355    1.0000 </r>
       <r>   -4.8051    1.0000 </r>
       <r>   -4.8051    1.0000 </r>
       <r>   -4.6958    1.0000 </r>
       <r>   -4.6958    1.0000 </r>
       <r>   -4.6855    1.0000 </r>
       <r>   -3.2631    0.0000 </r>
       <r>   -1.0105    0.0000 </r>
       <r>   -1.0105    0.0000 </r>
       <r>   -0.6068    0.0000 </r>
       <r>    0.1443    0.0000 </r>
       <r>    0.3583    0.0000 </r>
       <r>    0.4292    0.0000 </r>
       <r>    0.4292    0.0000 </r>
       <r>    0.7211    0.0000 </r>
       <r>    0.8914    0.0000 </r>
       <r>    1.0126    0.0000 </r>
       <r>    1.0126    0.0000 </r>
       <r>    1.0782    0.0000 </r>
       <r>    1.1807    0.0000 </r>
       <r>    1.2021    0.0000 </r>
       <r>    1.3994    0.0000 </r>
       <r>    1.3994    0.0000 </r>
       <r>    1.6260    0.0000 </r>
       <r>    1.6338    0.0000 </r>
       <r>    1.6479    0.0000 </r>
       <r>    1.6479    0.0000 </r>
       <r>    1.7623    0.0000 </r>
       <r>    2.0411    0.0000 </r>
       <r>    2.0411    0.0000 </r>
       <r>    2.0778    0.0000 </r>
       <r>    2.2870    0.0000 </r>
       <r>    2.4274    0.0000 </r>
       <r>    2.4274    0.0000 </r>
       <r>    2.4631    0.0000 </r>
       <r>    2.5687    0.0000 </r>
       <r>    2.6465    0.0000 </r>
       <r>    2.8581    0.0000 </r>
       <r>    2.8800    0.0000 </r>
       <r>    2.8800    0.0000 </r>
       <r>    2.8844    0.0000 </r>
       <r>    2.9948    0.0000 </r>
       <r>    3.0575    0.0000 </r>
       <r>    3.0575    0.0000 </r>
       <r>    3.1220    0.0000 </r>
       <r>    3.1847    0.0000 </r>
       <r>    3.1847    0.0000 </r>
       <r>    3.2169    0.0000 </r>
       <r>    3.2991    0.0000 </r>
       <r>    3.4239    0.0000 </r>
       <r>    3.4868    0.0000 </r>
       <r>    3.4868    0.0000 </r>
       <r>    3.5331    0.0000 </r>
       <r>    3.5380    0.0000 </r>
       <r>    3.5546    0.0000 </r>
       <r>    3.5546    0.0000 </r>
       <r>    3.5604    0.0000 </r>
       <r>    3.5626    0.0000 </r>
       <r>    3.8330    0.0000 </r>
      </set>
      <set comment="kpoint 7">
       <r>   -5.9829    1.0000 </r>
       <r>   -5.2612    1.0000 </r>
       <r>   -5.2612    1.0000 </r>
       <r>   -4.9422    1.0000 </r>
       <r>   -4.9355    1.0000 </r>
       <r>   -4.9355    1.0000 </r>
       <r>   -4.8051    1.0000 </r>
       <r>   -4.8051    1.0000 </r>
       <r>   -4.6958    1.0000 </r>
       <r>   -4.6958    1.0000 </r>
       <r>   -4.6855    1.0000 </r>
       <r>   -3.2631    0.0000 </r>
       <r>   -1.0162    0.0000 </r>
       <r>   -1.0100    0.0000 </r>
       <r>   -0.6036    0.0000 </r>
       <r>    0.2103    0.0000 </r>
       <r>    0.3414    0.0000 </r>
       <r>    0.4352    0.0000 </r>
       <r>    0.4408    0.0000 </r>
       <r>    0.6050    0.0000 </r>
       <r>    0.8784    0.0000 </r>
       <r>    0.9280    0.0000 </r>
       <r>    0.9757    0.0000 </r>
       <r>    1.1254    0.0000 </r>
       <r>    1.2504    0.0000 </r>
       <r>    1.2509    0.0000 </r>
       <r>    1.2933    0.0000 </r>
       <r>    1.4328    0.0000 </r>
       <r>    1.5789    0.0000 </r>
       <r>    1.6615    0.0000 </r>
       <r>    1.7099    0.0000 </r>
       <r>    1.8814    0.0000 </r>
       <r>    1.9081    0.0000 </r>
       <r>    1.9828    0.0000 </r>
       <r>    2.0730    0.0000 </r>
       <r>    2.2134    0.0000 </r>
       <r>    2.2295    0.0000 </r>
       <r>    2.3373    0.0000 </r>
       <r>    2.4343    0.0000 </r>
       <r>    2.5368    0.0000 </r>
       <r>    2.5513    0.0000 </r>
       <r>    2.5874    0.0000 </r>
       <r>    2.6119    0.0000 </r>
       <r>    2.6748    0.0000 </r>
       <r>    2.7645    0.0000 </r>
       <r>    2.8716    0.0000 </r>
       <r>    2.8883    0.0000 </r>
       <r>    2.9135    0.0000 </r>
       <r>    3.0126    0.0000 </r>
       <r>    3.0933    0.0000 </r>
       <r>    3.1178    0.0000 </r>
       <r>    3.1223    0.0000 </r>
       <r>    3.1518    0.0000 </r>
       <r>    3.1946    0.0000 </r>
       <r>    3.2550    0.0000 </r>
       <r>    3.3966    0.0000 </r>
       <r>    3.4452    0.0000 </r>
       <r>    3.4884    0.0000 </r>
       <r>    3.5324    0.0000 </r>
       <r>    3.6522    0.0000 </r>
       <r>    3.6641    0.0000 </r>
       <r>    3.6763    0.0000 </r>
       <r>    3.7670    0.0000 </r>
       <r>    3.8221    0.0000 </r>
      </set>
      <set comment="kpoint 8">
       <r>   -5.9829    1.0000 </r>
       <r>   -5.2612    1.0000 </r>
       <r>   -5.2612    1.0000 </r>
       <r>   -4.9422    1.0000 </r>
       <r>   -4.9355    1.0000 </r>
       <r>   -4.9355    1.0000 </r>
       <r>   -4.8051    1.0000 </r>
       <r>   -4.8051    1.0000 </r>
       <r>   -4.6958    1.0000 </r>
       <r>   -4.6958    1.0000 </r>
       <r>   -4.6855    1.0000 </r>
       <r>   -3.2631    0.0000 </r>
       <r>   -1.0162    0.0000 </r>
       <r>   -1.0100    0.0000 </r>
       <r>   -0.6036    0.0000 </r>
       <r>    0.2103    0.0000 </r>
       <r>    0.3414    0.0000 </r>
       <r>    0.4352    0.0000 </r>
       <r>    0.4408    0.0000 </r>
       <r>    0.6050    0.0000 </r>
       <r>    0.8784    0.0000 </r>
       <r>    0.9280    0.0000 </r>
       <r>    0.9757    0.0000 </r>
       <r>    1.1254    0.0000 </r>
       <r>    1.2504    0.0000 </r>
       <r>    1.2509    0.0000 </r>
       <r>    1.2933    0.0000 </r>
       <r>    1.4328    0.0000 </r>
       <r>    1.5789    0.0000 </r>
       <r>    1.6615    0.0000 </r>
       <r>    1.7099    0.0000 </r>
       <r>    1.8814    0.0000 </r>
       <r>    1.9081    0.0000 </r>
       <r>    1.9828    0.0000 </r>
       <r>    2.0730    0.0000 </r>
       <r>    2.2134    0.0000 </r>
       <r>    2.2295    0.0000 </r>
       <r>    2.3373    0.0000 </r>
       <r>    2.4343    0.0000 </r>
       <r>    2.5368    0.0000 </r>
       <r>    2.5513    0.0000 </r>
       <r>    2.5874    0.0000 </r>
       <r>    2.6119    0.0000 </r>
       <r>    2.6748    0.0000 </r>
       <r>    2.7645    0.0000 </r>
       <r>    2.8716    0.0000 </r>
       <r>    2.8883    0.0000 </r>
       <r>    2.9135    0.0000 </r>
       <r>    3.0126    0.0000 </r>
       <r>    3.0933    0.0000 </r>
       <r>    3.1178    0.0000 </r>
       <r>    3.1223    0.0000 </r>
       <r>    3.1518    0.0000 </r>
       <r>    3.1946    0.0000 </r>
       <r>    3.2550    0.0000 </r>
       <r>    3.3966    0.0000 </r>
       <r>    3.4452    0.0000 </r>
       <r>    3.4884    0.0000 </r>
       <r>    3.5324    0.0000 </r>
       <r>    3.6522    0.0000 </r>
       <r>    3.6641    0.0000 </r>
       <r>    3.6763    0.0000 </r>
       <r>    3.7670    0.0000 </r>
       <r>    3.8221    0.0000 </r>
      </set>
      <set comment="kpoint 9">
       <r>   -5.9829    1.0000 </r>
       <r>   -5.2612    1.0000 </r>
       <r>   -5.2612    1.0000 </r>
       <r>   -4.9422    1.0000 </r>
       <r>   -4.9355    1.0000 </r>
       <r>   -4.9355    1.0000 </r>
       <r>   -4.8051    1.0000 </r>
       <r>   -4.8051    1.0000 </r>
       <r>   -4.6958    1.0000 </r>
       <r>   -4.6958    1.0000 </r>
       <r>   -4.6855    1.0000 </r>
       <r>   -3.2631    0.0000 </r>
       <r>   -1.0162    0.0000 </r>
       <r>   -1.0100    0.0000 </r>
       <r>   -0.6036    0.0000 </r>
       <r>    0.2103    0.0000 </r>
       <r>    0.3414    0.0000 </r>
       <r>    0.4352    0.0000 </r>
       <r>    0.4408    0.0000 </r>
       <r>    0.6050    0.0000 </r>
       <r>    0.8784    0.0000 </r>
       <r>    0.9280    0.0000 </r>
       <r>    0.9757    0.0000 </r>
       <r>    1.1254    0.0000 </r>
       <r>    1.2504    0.0000 </r>
       <r>    1.2509    0.0000 </r>
       <r>    1.2933    0.0000 </r>
       <r>    1.4328    0.0000 </r>
       <r>    1.5789    0.0000 </r>
       <r>    1.6615    0.0000 </r>
       <r>    1.7099    0.0000 </r>
       <r>    1.8814    0.0000 </r>
       <r>    1.9081    0.0000 </r>
       <r>    1.9828    0.0000 </r>
       <r>    2.0730    0.0000 </r>
       <r>    2.2134    0.0000 </r>
       <r>    2.2295    0.0000 </r>
       <r>    2.3373    0.0000 </r>
       <r>    2.4343    0.0000 </r>
       <r>    2.5368    0.0000 </r>
       <r>    2.5513    0.0000 </r>
       <r>    2.5874    0.0000 </r>
       <r>    2.6119    0.0000 </r>
       <r>    2.6748    0.0000 </r>
       <r>    2.7645    0.0000 </r>
       <r>    2.8716    0.0000 </r>
       <r>    2.8883    0.0000 </r>
       <r>    2.9135    0.0000 </r>
       <r>    3.0126    0.0000 </r>
       <r>    3.0933    0.0000 </r>
       <r>    3.1178    0.0000 </r>
       <r>    3.1223    0.0000 </r>
       <r>    3.1518    0.0000 </r>
       <r>    3.1946    0.0000 </r>
       <r>    3.2550    0.0000 </r>
       <r>    3.3966    0.0000 </r>
       <r>    3.4452    0.0000 </r>
       <r>    3.4884    0.0000 </r>
       <r>    3.5324    0.0000 </r>
       <r>    3.6522    0.0000 </r>
       <r>    3.6641    0.0000 </r>
       <r>    3.6763    0.0000 </r>
       <r>    3.7670    0.0000 </r>
       <r>    3.8221    0.0000 </r>
      </set>
      <set comment="kpoint 10">
       <r>   -5.9829    1.0000 </r>
       <r>   -5.2612    1.0000 </r>
       <r>   -5.2612    1.0000 </r>
       <r>   -4.9422    1.0000 </r>
       <r>   -4.9355    1.0000 </r>
       <r>   -4.9355    1.0000 </r>
       <r>   -4.8051    1.0000 </r>
       <r>   -4.8051    1.0000 </r>
       <r>   -4.6958    1.0000 </r>
       <r>   -4.6958    1.0000 </r>
       <r>   -4.6855    1.0000 </r>
       <r>   -3.2631    0.0000 </r>
       <r>   -1.0162    0.0000 </r>
       <r>   -1.0100    0.0000 </r>
       <r>   -0.6036    0.0000 </r>
       <r>    0.2103    0.0000 </r>
       <r>    0.3414    0.0000 </r>
       <r>    0.4352    0.0000 </r>
       <r>    0.4408    0.0000 </r>
       <r>    0.6050    0.0000 </r>
       <r>    0.8784    0.0000 </r>
       <r>    0.9280    0.0000 </r>
       <r>    0.9757    0.0000 </r>
       <r>    1.1254    0.0000 </r>
       <r>    1.2504    0.0000 </r>
       <r>    1.2509    0.0000 </r>
       <r>    1.2933    0.0000 </r>
       <r>    1.4328    0.0000 </r>
       <r>    1.5789    0.0000 </r>
       <r>    1.6615    0.0000 </r>
       <r>    1.7099    0.0000 </r>
       <r>    1.8814    0.0000 </r>
       <r>    1.9081    0.0000 </r>
       <r>    1.9828    0.0000 </r>
       <r>    2.0730    0.0000 </r>
       <r>    2.2134    0.0000 </r>
       <r>    2.2295    0.0000 </r>
       <r>    2.3373    0.0000 </r>
       <r>    2.4343    0.0000 </r>
       <r>    2.5368    0.0000 </r>
       <r>    2.5513    0.0000 </r>
       <r>    2.5874    0.0000 </r>
       <r>    2.6119    0.0000 </r>
       <r>    2.6748    0.0000 </r>
       <r>    2.7645    0.0000 </r>
       <r>    2.8716    0.0000 </r>
       <r>    2.8883    0.0000 </r>
       <r>    2.9135    0.0000 </r>
       <r>    3.0126    0.0000 </r>
       <r>    3.0933    0.0000 </r>
       <r>    3.1178    0.0000 </r>
       <r>    3.1223    0.0000 </r>
       <r>    3.1518    0.0000 </r>
       <r>    3.1946    0.0000 </r>
       <r>    3.2550    0.0000 </r>
       <r>    3.3966    0.0000 </r>
       <r>    3.4452    0.0000 </r>
       <r>    3.4884    0.0000 </r>
       <r>    3.5324    0.0000 </r>
       <r>    3.6522    0.0000 </r>
       <r>    3.6641    0.0000 </r>
       <r>    3.6763    0.0000 </r>
       <r>    3.7670    0.0000 </r>
       <r>    3.8221    0.0000 </r>
      </set>
      <set comment="kpoint 11">
       <r>   -5.9829    1.0000 </r>
       <r>   -5.2612    1.0000 </r>
       <r>   -5.2612    1.0000 </r>
       <r>   -4.9422    1.0000 </r>
       <r>   -4.9355    1.0000 </r>
       <r>   -4.9355    1.0000 </r>
       <r>   -4.8051    1.0000 </r>
       <r>   -4.8051    1.0000 </r>
       <r>   -4.6958    1.0000 </r>
       <r>   -4.6958    1.0000 </r>
       <r>   -4.6855    1.0000 </r>
       <r>   -3.2631    0.0000 </r>
       <r>   -1.0156    0.0000 </r>
       <r>   -1.0154    0.0000 </r>
       <r>   -0.6009    0.0000 </r>
       <r>    0.2633    0.0000 </r>
       <r>    0.3402    0.0000 </r>
       <r>    0.4306    0.0000 </r>
       <r>    0.4968    0.0000 </r>
       <r>    0.6019    0.0000 </r>
       <r>    0.6956    0.0000 </r>
       <r>    0.8748    0.0000 </r>
       <r>    0.9041    0.0000 </r>
       <r>    1.1102    0.0000 </r>
       <r>    1.1852    0.0000 </r>
       <r>    1.3021    0.0000 </r>
       <r>    1.4630    0.0000 </r>
       <r>    1.6197    0.0000 </r>
       <r>    1.6393    0.0000 </r>
       <r>    1.7135    0.0000 </r>
       <r>    1.8334    0.0000 </r>
       <r>    1.9229    0.0000 </r>
       <r>    1.9295    0.0000 </r>
       <r>    1.9930    0.0000 </r>
       <r>    2.0917    0.0000 </r>
       <r>    2.1069    0.0000 </r>
       <r>    2.1669    0.0000 </r>
       <r>    2.2915    0.0000 </r>
       <r>    2.3362    0.0000 </r>
       <r>    2.3459    0.0000 </r>
       <r>    2.4376    0.0000 </r>
       <r>    2.5367    0.0000 </r>
       <r>    2.5799    0.0000 </r>
       <r>    2.6804    0.0000 </r>
       <r>    2.6938    0.0000 </r>
       <r>    2.7967    0.0000 </r>
       <r>    2.8029    0.0000 </r>
       <r>    2.8460    0.0000 </r>
       <r>    3.0264    0.0000 </r>
       <r>    3.0731    0.0000 </r>
       <r>    3.1274    0.0000 </r>
       <r>    3.2128    0.0000 </r>
       <r>    3.2597    0.0000 </r>
       <r>    3.2616    0.0000 </r>
       <r>    3.3369    0.0000 </r>
       <r>    3.3770    0.0000 </r>
       <r>    3.3891    0.0000 </r>
       <r>    3.4094    0.0000 </r>
       <r>    3.5374    0.0000 </r>
       <r>    3.5978    0.0000 </r>
       <r>    3.7396    0.0000 </r>
       <r>    3.8738    0.0000 </r>
       <r>    3.8877    0.0000 </r>
       <r>    3.9997    0.0000 </r>
      </set>
      <set comment="kpoint 12">
       <r>   -5.9829    1.0000 </r>
       <r>   -5.2612    1.0000 </r>
       <r>   -5.2612    1.0000 </r>
       <r>   -4.9422    1.0000 </r>
       <r>   -4.9355    1.0000 </r>
       <r>   -4.9355    1.0000 </r>
       <r>   -4.8051    1.0000 </r>
       <r>   -4.8051    1.0000 </r>
       <r>   -4.6958    1.0000 </r>
       <r>   -4.6958    1.0000 </r>
       <r>   -4.6855    1.0000 </r>
       <r>   -3.2631    0.0000 </r>
       <r>   -1.0156    0.0000 </r>
       <r>   -1.0154    0.0000 </r>
       <r>   -0.6009    0.0000 </r>
       <r>    0.2633    0.0000 </r>
       <r>    0.3402    0.0000 </r>
       <r>    0.4306    0.0000 </r>
       <r>    0.4968    0.0000 </r>
       <r>    0.6019    0.0000 </r>
       <r>    0.6956    0.0000 </r>
       <r>    0.8748    0.0000 </r>
       <r>    0.9041    0.0000 </r>
       <r>    1.1102    0.0000 </r>
       <r>    1.1852    0.0000 </r>
       <r>    1.3021    0.0000 </r>
       <r>    1.4630    0.0000 </r>
       <r>    1.6197    0.0000 </r>
       <r>    1.6393    0.0000 </r>
       <r>    1.7135    0.0000 </r>
       <r>    1.8334    0.0000 </r>
       <r>    1.9229    0.0000 </r>
       <r>    1.9295    0.0000 </r>
       <r>    1.9930    0.0000 </r>
       <r>    2.0917    0.0000 </r>
       <r>    2.1069    0.0000 </r>
       <r>    2.1669    0.0000 </r>
       <r>    2.2915    0.0000 </r>
       <r>    2.3362    0.0000 </r>
       <r>    2.3459    0.0000 </r>
       <r>    2.4376    0.0000 </r>
       <r>    2.5367    0.0000 </r>
       <r>    2.5799    0.0000 </r>
       <r>    2.6804    0.0000 </r>
       <r>    2.6938    0.0000 </r>
       <r>    2.7967    0.0000 </r>
       <r>    2.8029    0.0000 </r>
       <r>    2.8460    0.0000 </r>
       <r>    3.0264    0.0000 </r>
       <r>    3.0731    0.0000 </r>
       <r>    3.1274    0.0000 </r>
       <r>    3.2128    0.0000 </r>
       <r>    3.2597    0.0000 </r>
       <r>    3.2616    0.0000 </r>
       <r>    3.3369    0.0000 </r>
       <r>    3.3770    0.0000 </r>
       <r>    3.3891    0.0000 </r>
       <r>    3.4094    0.0000 </r>
       <r>    3.5374    0.0000 </r>
       <r>    3.5978    0.0000 </r>
       <r>    3.7396    0.0000 </r>
       <r>    3.8738    0.0000 </r>
       <r>    3.8877    0.0000 </r>
       <r>    3.9997    0.0000 </r>
      </set>
      <set comment="kpoint 13">
       <r>   -5.9829    1.0000 </r>
       <r>   -5.2612    1.0000 </r>
       <r>   -5.2612    1.0000 </r>
       <r>   -4.9422    1.0000 </r>
       <r>   -4.9355    1.0000 </r>
       <r>   -4.9355    1.0000 </r>
       <r>   -4.8051    1.0000 </r>
       <r>   -4.8051    1.0000 </r>
       <r>   -4.6958    1.0000 </r>
       <r>   -4.6958    1.0000 </r>
       <r>   -4.6855    1.0000 </r>
       <r>   -3.2631    0.0000 </r>
       <r>   -1.0156    0.0000 </r>
       <r>   -1.0154    0.0000 </r>
       <r>   -0.6009    0.0000 </r>
       <r>    0.2633    0.0000 </r>
       <r>    0.3402    0.0000 </r>
       <r>    0.4306    0.0000 </r>
       <r>    0.4968    0.0000 </r>
       <r>    0.6019    0.0000 </r>
       <r>    0.6956    0.0000 </r>
       <r>    0.8748    0.0000 </r>
       <r>    0.9041    0.0000 </r>
       <r>    1.1102    0.0000 </r>
       <r>    1.1852    0.0000 </r>
       <r>    1.3021    0.0000 </r>
       <r>    1.4630    0.0000 </r>
       <r>    1.6197    0.0000 </r>
       <r>    1.6393    0.0000 </r>
       <r>    1.7135    0.0000 </r>
       <r>    1.8334    0.0000 </r>
       <r>    1.9229    0.0000 </r>
       <r>    1.9295    0.0000 </r>
       <r>    1.9930    0.0000 </r>
       <r>    2.0917    0.0000 </r>
       <r>    2.1069    0.0000 </r>
       <r>    2.1669    0.0000 </r>
       <r>    2.2915    0.0000 </r>
       <r>    2.3362    0.0000 </r>
       <r>    2.3459    0.0000 </r>
       <r>    2.4376    0.0000 </r>
       <r>    2.5367    0.0000 </r>
       <r>    2.5799    0.0000 </r>
       <r>    2.6804    0.0000 </r>
       <r>    2.6938    0.0000 </r>
       <r>    2.7967    0.0000 </r>
       <r>    2.8029    0.0000 </r>
       <r>    2.8460    0.0000 </r>
       <r>    3.0264    0.0000 </r>
       <r>    3.0731    0.0000 </r>
       <r>    3.1274    0.0000 </r>
       <r>    3.2128    0.0000 </r>
       <r>    3.2597    0.0000 </r>
       <r>    3.2616    0.0000 </r>
       <r>    3.3369    0.0000 </r>
       <r>    3.3770    0.0000 </r>
       <r>    3.3891    0.0000 </r>
       <r>    3.4094    0.0000 </r>
       <r>    3.5374    0.0000 </r>
       <r>    3.5978    0.0000 </r>
       <r>    3.7396    0.0000 </r>
       <r>    3.8738    0.0000 </r>
       <r>    3.8877    0.0000 </r>
       <r>    3.9997    0.0000 </r>
      </set>
      <set comment="kpoint 14">
       <r>   -5.9829    1.0000 </r>
       <r>   -5.2612    1.0000 </r>
       <r>   -5.2612    1.0000 </r>
       <r>   -4.9422    1.0000 </r>
       <r>   -4.9355    1.0000 </r>
       <r>   -4.9355    1.0000 </r>
       <r>   -4.8051    1.0000 </r>
       <r>   -4.8051    1.0000 </r>
       <r>   -4.6958    1.0000 </r>
       <r>   -4.6958    1.0000 </r>
       <r>   -4.6855    1.0000 </r>
       <r>   -3.2631    0.0000 </r>
       <r>   -1.0156    0.0000 </r>
       <r>   -1.0154    0.0000 </r>
       <r>   -0.6009    0.0000 </r>
       <r>    0.2633    0.0000 </r>
       <r>    0.3402    0.0000 </r>
       <r>    0.4306    0.0000 </r>
       <r>    0.4968    0.0000 </r>
       <r>    0.6019    0.0000 </r>
       <r>    0.6956    0.0000 </r>
       <r>    0.8748    0.0000 </r>
       <r>    0.9041    0.0000 </r>
       <r>    1.1102    0.0000 </r>
       <r>    1.1852    0.0000 </r>
       <r>    1.3021    0.0000 </r>
       <r>    1.4630    0.0000 </r>
       <r>    1.6197    0.0000 </r>
       <r>    1.6393    0.0000 </r>
       <r>    1.7135    0.0000 </r>
       <r>    1.8334    0.0000 </r>
       <r>    1.9229    0.0000 </r>
       <r>    1.9295    0.0000 </r>
       <r>    1.9930    0.0000 </r>
       <r>    2.0917    0.0000 </r>
       <r>    2.1069    0.0000 </r>
       <r>    2.1669    0.0000 </r>
       <r>    2.2915    0.0000 </r>
       <r>    2.3362    0.0000 </r>
       <r>    2.3459    0.0000 </r>
       <r>    2.4376    0.0000 </r>
       <r>    2.5367    0.0000 </r>
       <r>    2.5799    0.0000 </r>
       <r>    2.6804    0.0000 </r>
       <r>    2.6938    0.0000 </r>
       <r>    2.7967    0.0000 </r>
       <r>    2.8029    0.0000 </r>
       <r>    2.8460    0.0000 </r>
       <r>    3.0264    0.0000 </r>
       <r>    3.0731    0.0000 </r>
       <r>    3.1274    0.0000 </r>
       <r>    3.2128    0.0000 </r>
       <r>    3.2597    0.0000 </r>
       <r>    3.2616    0.0000 </r>
       <r>    3.3369    0.0000 </r>
       <r>    3.3770    0.0000 </r>
       <r>    3.3891    0.0000 </r>
       <r>    3.4094    0.0000 </r>
       <r>    3.5374    0.0000 </r>
       <r>    3.5978    0.0000 </r>
       <r>    3.7396    0.0000 </r>
       <r>    3.8738    0.0000 </r>
       <r>    3.8877    0.0000 </r>
       <r>    3.9997    0.0000 </r>
      </set>
     </set>
    </set>
   </array>
  </eigenvalues>
  <separator name="orbital magnetization" >
   <v name="MAGDIPOLOUT">      0.00000000      0.00000000      0.00000000</v>
  </separator>
  <dos>
   <i name="efermi">     -4.42431962 </i>
   <total>
    <array>
     <dimension dim="1">gridpoints</dimension>
     <dimension dim="2">spin</dimension>
     <field>energy</field>
     <field>total</field>
     <field>integrated</field>
     <set>
      <set comment="spin 1">
       <r>    -6.4846     0.0000     0.0000 </r>
       <r>    -6.4478     0.0000     0.0000 </r>
       <r>    -6.4110     0.0000     0.0000 </r>
       <r>    -6.3742     0.0000     0.0000 </r>
       <r>    -6.3374     0.0000     0.0000 </r>
       <r>    -6.3007     0.0000     0.0000 </r>
       <r>    -6.2639     0.0000     0.0000 </r>
       <r>    -6.2271     0.0000     0.0000 </r>
       <r>    -6.1903     0.0000     0.0000 </r>
       <r>    -6.1536     0.0000     0.0000 </r>
       <r>    -6.1168     0.0041     0.0002 </r>
       <r>    -6.0800     0.1603     0.0061 </r>
       <r>    -6.0432     2.2347     0.0882 </r>
       <r>    -6.0064    11.3691     0.5064 </r>
       <r>    -5.9697    21.3856     1.2930 </r>
       <r>    -5.9329    14.9620     1.8433 </r>
       <r>    -5.8961     3.8800     1.9860 </r>
       <r>    -5.8593     0.3687     1.9995 </r>
       <r>    -5.8225     0.0127     2.0000 </r>
       <r>    -5.7858     0.0002     2.0000 </r>
       <r>    -5.7490     0.0000     2.0000 </r>
       <r>    -5.7122     0.0000     2.0000 </r>
       <r>    -5.6754     0.0000     2.0000 </r>
       <r>    -5.6386     0.0000     2.0000 </r>
       <r>    -5.6019     0.0000     2.0000 </r>
       <r>    -5.5651     0.0000     2.0000 </r>
       <r>    -5.5283     0.0000     2.0000 </r>
       <r>    -5.4915     0.0000     2.0000 </r>
       <r>    -5.4547     0.0000     2.0000 </r>
       <r>    -5.4180     0.0005     2.0000 </r>
       <r>    -5.3812     0.0372     2.0014 </r>
       <r>    -5.3444     0.9785     2.0374 </r>
       <r>    -5.3076     9.3004     2.3794 </r>
       <r>    -5.2708    32.4408     3.5726 </r>
       <r>    -5.2341    41.9745     5.1164 </r>
       <r>    -5.1973    20.1962     5.8592 </r>
       <r>    -5.1605     3.5890     5.9912 </r>
       <r>    -5.1237     0.2325     5.9998 </r>
       <r>    -5.0869     0.0076     6.0001 </r>
       <r>    -5.0502     0.1240     6.0046 </r>
       <r>    -5.0134     2.5783     6.0995 </r>
       <r>    -4.9766    19.6258     6.8213 </r>
       <r>    -4.9398    55.4377     8.8603 </r>
       <r>    -4.9030    58.8921    11.0263 </r>
       <r>    -4.8663    27.4212    12.0349 </r>
       <r>    -4.8295    25.5102    12.9732 </r>
       <r>    -4.7927    43.1824    14.5614 </r>
       <r>    -4.7559    36.2583    15.8950 </r>
       <r>    -4.7191    38.9573    17.3278 </r>
       <r>    -4.6824    63.4070    19.6599 </r>
       <r>    -4.6456    48.1055    21.4292 </r>
       <r>    -4.6088    13.9433    21.9421 </r>
       <r>    -4.5720     1.5134    21.9977 </r>
       <r>    -4.5352     0.0606    22.0000 </r>
       <r>    -4.4985     0.0009    22.0000 </r>
       <r>    -4.4617     0.0000    22.0000 </r>
       <r>    -4.4249     0.0000    22.0000 </r>
       <r>    -4.3881     0.0000    22.0000 </r>
       <r>    -4.3513     0.0000    22.0000 </r>
       <r>    -4.3146     0.0000    22.0000 </r>
       <r>    -4.2778     0.0000    22.0000 </r>
       <r>    -4.2410     0.0000    22.0000 </r>
       <r>    -4.2042     0.0000    22.0000 </r>
       <r>    -4.1674     0.0000    22.0000 </r>
       <r>    -4.1307     0.0000    22.0000 </r>
       <r>    -4.0939     0.0000    22.0000 </r>
       <r>    -4.0571     0.0000    22.0000 </r>
       <r>    -4.0203     0.0000    22.0000 </r>
       <r>    -3.9835     0.0000    22.0000 </r>
       <r>    -3.9468     0.0000    22.0000 </r>
       <r>    -3.9100     0.0000    22.0000 </r>
       <r>    -3.8732     0.0000    22.0000 </r>
       <r>    -3.8364     0.0000    22.0000 </r>
       <r>    -3.7996     0.0000    22.0000 </r>
       <r>    -3.7629     0.0000    22.0000 </r>
       <r>    -3.7261     0.0000    22.0000 </r>
       <r>    -3.6893     0.0000    22.0000 </r>
       <r>    -3.6525     0.0000    22.0000 </r>
       <r>    -3.6157     0.0000    22.0000 </r>
       <r>    -3.5790     0.0000    22.0000 </r>
       <r>    -3.5422     0.0000    22.0000 </r>
       <r>    -3.5054     0.0000    22.0000 </r>
       <r>    -3.4686     0.0000    22.0000 </r>
       <r>    -3.4318     0.0000    22.0000 </r>
       <r>    -3.3951     0.0043    22.0002 </r>
       <r>    -3.3583     0.1649    22.0062 </r>
       <r>    -3.3215     2.2652    22.0895 </r>
       <r>    -3.2847    11.4092    22.5092 </r>
       <r>    -3.2479    21.3433    23.2942 </r>
       <r>    -3.2112    14.9198    23.8429 </r>
       <r>    -3.1744     3.8849    23.9858 </r>
       <r>    -3.1376     0.3727    23.9995 </r>
       <r>    -3.1008     0.0130    24.0000 </r>
       <r>    -3.0640     0.0002    24.0000 </r>
       <r>    -3.0273     0.0000    24.0000 </r>
       <r>    -2.9905     0.0000    24.0000 </r>
       <r>    -2.9537     0.0000    24.0000 </r>
       <r>    -2.9169     0.0000    24.0000 </r>
       <r>    -2.8801     0.0000    24.0000 </r>
       <r>    -2.8434     0.0000    24.0000 </r>
       <r>    -2.8066     0.0000    24.0000 </r>
       <r>    -2.7698     0.0000    24.0000 </r>
       <r>    -2.7330     0.0000    24.0000 </r>
       <r>    -2.6962     0.0000    24.0000 </r>
       <r>    -2.6595     0.0000    24.0000 </r>
       <r>    -2.6227     0.0000    24.0000 </r>
       <r>    -2.5859     0.0000    24.0000 </r>
       <r>    -2.5491     0.0000    24.0000 </r>
       <r>    -2.5123     0.0000    24.0000 </r>
       <r>    -2.4756     0.0000    24.0000 </r>
       <r>    -2.4388     0.0000    24.0000 </r>
       <r>    -2.4020     0.0000    24.0000 </r>
       <r>    -2.3652     0.0000    24.0000 </r>
       <r>    -2.3284     0.0000    24.0000 </r>
       <r>    -2.2917     0.0000    24.0000 </r>
       <r>    -2.2549     0.0000    24.0000 </r>
       <r>    -2.2181     0.0000    24.0000 </r>
       <r>    -2.1813     0.0000    24.0000 </r>
       <r>    -2.1445     0.0000    24.0000 </r>
       <r>    -2.1078     0.0000    24.0000 </r>
       <r>    -2.0710     0.0000    24.0000 </r>
       <r>    -2.0342     0.0000    24.0000 </r>
       <r>    -1.9974     0.0000    24.0000 </r>
       <r>    -1.9606     0.0000    24.0000 </r>
       <r>    -1.9239     0.0000    24.0000 </r>
       <r>    -1.8871     0.0000    24.0000 </r>
       <r>    -1.8503     0.0000    24.0000 </r>
       <r>    -1.8135     0.0000    24.0000 </r>
       <r>    -1.7767     0.0000    24.0000 </r>
       <r>    -1.7400     0.0000    24.0000 </r>
       <r>    -1.7032     0.0000    24.0000 </r>
       <r>    -1.6664     0.0000    24.0000 </r>
       <r>    -1.6296     0.0000    24.0000 </r>
       <r>    -1.5928     0.0000    24.0000 </r>
       <r>    -1.5561     0.0000    24.0000 </r>
       <r>    -1.5193     0.0000    24.0000 </r>
       <r>    -1.4825     0.0000    24.0000 </r>
       <r>    -1.4457     0.0000    24.0000 </r>
       <r>    -1.4089     0.0000    24.0000 </r>
       <r>    -1.3722     0.0000    24.0000 </r>
       <r>    -1.3354     0.0000    24.0000 </r>
       <r>    -1.2986     0.0000    24.0000 </r>
       <r>    -1.2618     0.0000    24.0000 </r>
       <r>    -1.2250     0.0000    24.0000 </r>
       <r>    -1.1883     0.0001    24.0000 </r>
       <r>    -1.1515     0.0081    24.0003 </r>
       <r>    -1.1147     0.3084    24.0116 </r>
       <r>    -1.0779     4.2695    24.1687 </r>
       <r>    -1.0411    21.9214    24.9749 </r>
       <r>    -1.0044    42.2428    26.5286 </r>
       <r>    -0.9676    30.7186    27.6585 </r>
       <r>    -0.9308     8.3999    27.9674 </r>
       <r>    -0.8940     0.8540    27.9988 </r>
       <r>    -0.8572     0.0324    28.0000 </r>
       <r>    -0.8205     0.0284    28.0011 </r>
       <r>    -0.7837     0.4740    28.0185 </r>
       <r>    -0.7469     2.9403    28.1266 </r>
       <r>    -0.7101     6.8078    28.3770 </r>
       <r>    -0.6733     6.6124    28.6202 </r>
       <r>    -0.6366     7.1851    28.8845 </r>
       <r>    -0.5998    13.4009    29.3774 </r>
       <r>    -0.5630    12.1843    29.8255 </r>
       <r>    -0.5262     4.1879    29.9795 </r>
       <r>    -0.4894     0.5313    29.9991 </r>
       <r>    -0.4527     0.0245    30.0000 </r>
       <r>    -0.4159     0.0004    30.0000 </r>
       <r>    -0.3791     0.0000    30.0000 </r>
       <r>    -0.3423     0.0000    30.0000 </r>
       <r>    -0.3055     0.0000    30.0000 </r>
       <r>    -0.2688     0.0000    30.0000 </r>
       <r>    -0.2320     0.0000    30.0000 </r>
       <r>    -0.1952     0.0000    30.0000 </r>
       <r>    -0.1584     0.0000    30.0000 </r>
       <r>    -0.1216     0.0000    30.0000 </r>
       <r>    -0.0849     0.0000    30.0000 </r>
       <r>    -0.0481     0.0001    30.0000 </r>
       <r>    -0.0113     0.0051    30.0002 </r>
       <r>     0.0255     0.0763    30.0030 </r>
       <r>     0.0623     0.4438    30.0193 </r>
       <r>     0.0990     1.2874    30.0667 </r>
       <r>     0.1358     3.0499    30.1788 </r>
       <r>     0.1726     6.6177    30.4222 </r>
       <r>     0.2094    10.7967    30.8193 </r>
       <r>     0.2462    13.4605    31.3144 </r>
       <r>     0.2829    13.4730    31.8100 </r>
       <r>     0.3197    13.4757    32.3056 </r>
       <r>     0.3565    16.5656    32.9149 </r>
       <r>     0.3933    18.2793    33.5872 </r>
       <r>     0.4301    25.6166    34.5294 </r>
       <r>     0.4668    29.6864    35.6212 </r>
       <r>     0.5036    22.7729    36.4588 </r>
       <r>     0.5404    17.0581    37.0862 </r>
       <r>     0.5772    21.2045    37.8661 </r>
       <r>     0.6140    25.0095    38.7859 </r>
       <r>     0.6507    16.5272    39.3938 </r>
       <r>     0.6875    10.0233    39.7625 </r>
       <r>     0.7243    10.5447    40.1503 </r>
       <r>     0.7611     8.7341    40.4716 </r>
       <r>     0.7979     7.6730    40.7538 </r>
       <r>     0.8346    11.5049    41.1769 </r>
       <r>     0.8714    20.0067    41.9128 </r>
       <r>     0.9082    26.3563    42.8821 </r>
       <r>     0.9450    23.0647    43.7305 </r>
       <r>     0.9818    19.4958    44.4475 </r>
       <r>     1.0185    18.5318    45.1291 </r>
       <r>     1.0553    16.5977    45.7396 </r>
       <r>     1.0921    20.1009    46.4789 </r>
       <r>     1.1289    24.7576    47.3895 </r>
       <r>     1.1657    23.5090    48.2541 </r>
       <r>     1.2024    20.0413    48.9912 </r>
       <r>     1.2392    19.5657    49.7109 </r>
       <r>     1.2760    25.0039    50.6305 </r>
       <r>     1.3128    27.9399    51.6581 </r>
       <r>     1.3496    22.2147    52.4752 </r>
       <r>     1.3863    17.6566    53.1246 </r>
       <r>     1.4231    19.2779    53.8336 </r>
       <r>     1.4599    20.1350    54.5742 </r>
       <r>     1.4967    14.5943    55.1110 </r>
       <r>     1.5335     8.9097    55.4387 </r>
       <r>     1.5702    14.1024    55.9574 </r>
       <r>     1.6070    26.6768    56.9385 </r>
       <r>     1.6438    37.5489    58.3196 </r>
       <r>     1.6806    38.1368    59.7222 </r>
       <r>     1.7174    30.9684    60.8613 </r>
       <r>     1.7541    24.7203    61.7705 </r>
       <r>     1.7909    21.3607    62.5561 </r>
       <r>     1.8277    21.7051    63.3544 </r>
       <r>     1.8645    23.7094    64.2265 </r>
       <r>     1.9013    26.2162    65.1907 </r>
       <r>     1.9380    27.4378    66.1998 </r>
       <r>     1.9748    25.6748    67.1442 </r>
       <r>     2.0116    25.8267    68.0941 </r>
       <r>     2.0484    25.9552    69.0487 </r>
       <r>     2.0852    29.0060    70.1155 </r>
       <r>     2.1219    28.6489    71.1692 </r>
       <r>     2.1587    21.3600    71.9549 </r>
       <r>     2.1955    19.2107    72.6614 </r>
       <r>     2.2323    24.5247    73.5634 </r>
       <r>     2.2691    29.1314    74.6349 </r>
       <r>     2.3058    35.3732    75.9359 </r>
       <r>     2.3426    41.4326    77.4598 </r>
       <r>     2.3794    33.7566    78.7014 </r>
       <r>     2.4162    26.2873    79.6682 </r>
       <r>     2.4529    27.2250    80.6695 </r>
       <r>     2.4897    22.1619    81.4847 </r>
       <r>     2.5265    23.0853    82.3337 </r>
       <r>     2.5633    34.2565    83.5937 </r>
       <r>     2.6001    38.5569    85.0118 </r>
       <r>     2.6368    31.5260    86.1713 </r>
       <r>     2.6736    28.4983    87.2195 </r>
       <r>     2.7104    31.0153    88.3602 </r>
       <r>     2.7472    27.1455    89.3586 </r>
       <r>     2.7840    26.9098    90.3484 </r>
       <r>     2.8207    29.3397    91.4275 </r>
       <r>     2.8575    31.3961    92.5822 </r>
       <r>     2.8943    33.6779    93.8209 </r>
       <r>     2.9311    27.5074    94.8326 </r>
       <r>     2.9679    22.2788    95.6520 </r>
       <r>     3.0046    26.6112    96.6308 </r>
       <r>     3.0414    33.5205    97.8637 </r>
       <r>     3.0782    37.6770    99.2494 </r>
       <r>     3.1150    41.8027   100.7869 </r>
       <r>     3.1518    42.3074   102.3430 </r>
       <r>     3.1885    38.3435   103.7533 </r>
       <r>     3.2253    38.8107   105.1807 </r>
       <r>     3.2621    40.2004   106.6593 </r>
       <r>     3.2989    34.9915   107.9463 </r>
       <r>     3.3357    28.8000   109.0055 </r>
       <r>     3.3724    31.7855   110.1746 </r>
       <r>     3.4092    37.1019   111.5392 </r>
       <r>     3.4460    35.2760   112.8367 </r>
       <r>     3.4828    34.4627   114.1042 </r>
       <r>     3.5196    36.2512   115.4375 </r>
       <r>     3.5563    32.9089   116.6479 </r>
       <r>     3.5931    24.1879   117.5375 </r>
       <r>     3.6299    21.6116   118.3324 </r>
       <r>     3.6667    29.4734   119.4164 </r>
       <r>     3.7035    30.7160   120.5462 </r>
       <r>     3.7402    24.8573   121.4604 </r>
       <r>     3.7770    22.1114   122.2737 </r>
       <r>     3.8138    20.0513   123.0111 </r>
       <r>     3.8506    20.8368   123.7775 </r>
       <r>     3.8874    20.9888   124.5495 </r>
       <r>     3.9241    17.7608   125.2027 </r>
       <r>     3.9609    20.1111   125.9424 </r>
       <r>     3.9977    24.7031   126.8510 </r>
       <r>     4.0345    19.3484   127.5626 </r>
       <r>     4.0713     8.9713   127.8926 </r>
       <r>     4.1080     2.5163   127.9851 </r>
       <r>     4.1448     0.3787   127.9991 </r>
       <r>     4.1816     0.0249   128.0000 </r>
       <r>     4.2184     0.0006   128.0000 </r>
       <r>     4.2552     0.0000   128.0000 </r>
       <r>     4.2919     0.0000   128.0000 </r>
       <r>     4.3287     0.0000   128.0000 </r>
       <r>     4.3655     0.0000   128.0000 </r>
       <r>     4.4023     0.0000   128.0000 </r>
       <r>     4.4391     0.0000   128.0000 </r>
       <r>     4.4758     0.0000   128.0000 </r>
       <r>     4.5126     0.0000   128.0000 </r>
       <r>     4.5494     0.0000   128.0000 </r>
      </set>
     </set>
    </array>
   </total>
  </dos>
 </calculation>
 <structure name="finalpos" >
  <crystal>
   <varray name="basis" >
    <v>      14.53271978       0.00000000       0.00000000 </v>
    <v>       0.00000000      14.53271978       0.00000000 </v>
    <v>       0.00000000       0.00000000      12.26635989 </v>
   </varray>
   <i name="volume">   2590.65452435 </i>
   <varray name="rec_basis" >
    <v>       0.06881024       0.00000000       0.00000000 </v>
    <v>       0.00000000       0.06881024       0.00000000 </v>
    <v>       0.00000000       0.00000000       0.08152378 </v>
   </varray>
  </crystal>
  <varray name="positions" >
   <v>       0.50000000       0.50000000       0.50000000 </v>
   <v>       0.50000000       0.50000000       0.29846023 </v>
  </varray>
  <varray name="selective"  type="logical" >
   <v type="logical" >  F  F  F </v>
   <v type="logical" >  F  F  T </v>
  </varray>
  <varray name="velocities" >
   <v>       0.00000000       0.00000000       0.00000000 </v>
   <v>       0.00000000       0.00000000      -0.00058220 </v>
  </varray>
  <nose>
   <v>       0.00478657       0.00000000     600.00000000     600.00000000 </v>
  </nose>
 </structure>
</modeling>
